------------------------------------------------------------
          Invoking FHI-aims ...

          When using FHI-aims, please cite the following reference:

            Volker Blum, Ralf Gehrke, Felix Hanke, Paula Havu,
            Ville Havu, Xinguo Ren, Karsten Reuter, and Matthias Scheffler,
            'Ab Initio Molecular Simulations with Numeric Atom-Centered Orbitals',
            Computer Physics Communications 180, 2175-2196 (2009)

          In addition, many other developments in FHI-aims are likely important for
          your particular application. If so, please cite them. A partial list of references
          is written at the end of this file. Thank you for giving credit to the authors
          of these developments.

          For general information about FHI-aims please find us at

            https://fhi-aims.org

          Online tutorials can be found at

            https://fhi-aims-club.gitlab.io/tutorials/tutorials-overview/

          For any questions about FHI-aims, please visit our slack channel at

            https://fhi-aims.slack.com

          and our main development and support site at

            https://aims-git.rz-berlin.mpg.de .

          The latter site, in particular, has a wiki to collect information, as well
          as an issue tracker to log discussions, suggest improvements, and report issues
          or bugs. https://aims-git.rz-berlin.mpg.de is also the main development site
          of the project and all new and updated code versions can be obtained there.
          Please send an email to aims-coordinators@fhi-berlin.mpg.de and we will add
          you to these sites. They are for you and everyone is welcome there.

------------------------------------------------------------



  Date     :  20260202, Time     :  125448.915
  Time zero on CPU 1             :   0.236454500000000E+01  s.
  Internal wall clock time zero  :           539268888.915  s.

  FHI-aims created a unique identifier for this run for later identification
  aims_uuid : 945A210B-5FCA-4F10-AE25-744B2FFE17B4

  Build configuration of the current instance of FHI-aims
  -------------------------------------------------------
  FHI-aims version      : 231208
  Commit number         : ce33249f0
  CMake host system     : Linux-4.18.0-477.21.1.el8_8.x86_64
  CMake version         : 3.20.2
  Fortran compiler      : /opt/intel/oneapi/mpi/2021.8.0/bin/mpiifort (Intel) version 2021.3.0.20210609
  Fortran compiler flags: -O3 -ip -fp-model precise
  C compiler            : /opt/intel/oneapi/compiler/2021.3.0/linux/bin/intel64/icc (Intel) version 2021.3.0.20210609
  C compiler flags      : -O3 -ip -fp-model precise -std=gnu99
  C++ compiler          : /opt/intel/oneapi/compiler/2021.3.0/linux/bin/intel64/icpc (Intel) version 2021.3.0.20210609
  C++ compiler flags    : -O3 -ip -fp-model precise
  HIP compiler          :
  HIP compiler flags    :
  HIP GPU arch          :
  Using MPI
  Using ScaLAPACK
  Using LibXC
  Using i-PI
  Using RLSY
  Linking against: /opt/intel/oneapi/mkl/2021.3.0/lib/intel64/libmkl_intel_lp64.so
                   /opt/intel/oneapi/mkl/2021.3.0/lib/intel64/libmkl_sequential.so
                   /opt/intel/oneapi/mkl/2021.3.0/lib/intel64/libmkl_core.so
                   /opt/intel/oneapi/mkl/2021.3.0/lib/intel64/libmkl_blacs_intelmpi_lp64.so
                   /opt/intel/oneapi/mkl/2021.3.0/lib/intel64/libmkl_scalapack_lp64.so

  Using       16 parallel tasks.
  Task        0 on host g8nodeag1 reporting.
  Task        1 on host g8nodeag1 reporting.
  Task        2 on host g8nodeag1 reporting.
  Task        3 on host g8nodeag1 reporting.
  Task        4 on host g8nodeag1 reporting.
  Task        5 on host g8nodeag1 reporting.
  Task        6 on host g8nodeag1 reporting.
  Task        7 on host g8nodeag1 reporting.
  Task        8 on host g8nodeag1 reporting.
  Task        9 on host g8nodeag1 reporting.
  Task       10 on host g8nodeag1 reporting.
  Task       11 on host g8nodeag1 reporting.
  Task       12 on host g8nodeag1 reporting.
  Task       13 on host g8nodeag1 reporting.
  Task       14 on host g8nodeag1 reporting.
  Task       15 on host g8nodeag1 reporting.

  Memory overcommitment is allowed on your operating system.

  Obtaining array dimensions for all initial allocations:
  
  -----------------------------------------------------------------------
  Parsing control.in (first pass over file, find array dimensions only).
  The contents of control.in will be repeated verbatim below
  unless switched off by setting 'verbatim_writeout .false.' .
  in the first line of control.in .
  -----------------------------------------------------------------------
  
   #===============================================================================
    # FHI-aims file: ./control.in
    # Created using the Atomic Simulation Environment (ASE)
    # Thu Apr 20 02:33:34 2023
    #===============================================================================
    xc                                 pbe
    charge                             0.
    spin                               none
    relativistic                       atomic_zora scalar
    charge                             0.
    occupation_type                    gaussian 0.05
    mixer                              pulay
    n_max_pulay                        10
    charge_mix_param                   0.2
    sc_accuracy_rho                    1E-2
    sc_accuracy_eev                    1E-1
    sc_accuracy_etot                   1E-3
    sc_accuracy_forces                 1E-2
    sc_iter_limit                      1000
    relax_geometry                     bfgs 5.e-2
    relax_unit_cell                    full
    RI_method                          lvl_fast
    k_grid                             8 8 8
    output                             hirshfeld
  #===============================================================================
  
  ################################################################################
  #
  #  FHI-aims code project
  #  VB, Fritz-Haber Institut, 2009
  #
  #  Suggested "light" defaults for Ir atom (to be pasted into control.in file)
  #  Be sure to double-check any results obtained with these settings for post-processing,
  #  e.g., with the "tight" defaults and larger basis sets.
  #
  ################################################################################
    species        Ir
  #     global species definitions
      nucleus             77
      mass                192.217
  #
      l_hartree           4
  #
      cut_pot             3.5  1.5  1.0
      basis_dep_cutoff    1e-4
  #
      radial_base         72 5.0
      radial_multiplier   1
      angular_grids specified
        division   0.3664   50
        division   0.9423  110
        division   1.2652  194
        division   1.6525  302
  #      division   1.8819  434
  #      division   2.0267  590
  #      division   2.0887  770
  #      division   2.1534  974
  #      division   2.6985 1202
  #      outer_grid  974
        outer_grid  302
  ################################################################################
  #
  #  Definition of "minimal" basis
  #
  ################################################################################
  #     valence basis states
      valence      6  s   2.
      valence      5  p   6.
      valence      5  d   7.
      valence      4  f  14.
  #     ion occupancy
      ion_occ     6  s   1.
      ion_occ     5  p   6.
      ion_occ     5  d   6.
      ion_occ     4  f   14.
  ################################################################################
  #
  #  Suggested additional basis functions. For production calculations,
  #  uncomment them one after another (the most important basis functions are
  #  listed first).
  #
  #  Constructed for dimers: 1.85, 2.125, 2.5, 3.25, 4.25 AA
  #
  ################################################################################
  #  "First tier" - max. impr. -337.32  meV, min. impr. -28.04 meV
       hydro 4 f 8.2
       ionic 6 p auto
  #     hydro 5 g 10.8
       hydro 3 d 2.9
       ionic 6 s auto
  #  "Second tier" - max. impr. -17.86  meV, min. impr. -0.56 meV
  #     hydro 6 h 15.6
  #     hydro 5 f 7.8
  #     hydro 5 f 14
  #     hydro 5 g 17.2
  #     hydro 3 p 3.7
  #     hydro 4 d 8.4
  #     hydro 1 s 0.6
  #  "Third tier" - max. impr. -0.76 meV, min. impr. -0.18 meV
  #     hydro 5 g 34.4
  #     hydro 3 d 6
  #     hydro 6 h 18.8
  #     hydro 5 f 12.4
  #     hydro 5 g 15.6
  #     hydro 2 p 3.5
  #     hydro 5 s 13.6
  #  Further functions - impr.: -0.19 meV and below
  #     hydro 6 h 25.6
  ################################################################################
  #
  #  FHI-aims code project
  #  VB, Fritz-Haber Institut, 2009
  #
  #  Suggested "light" defaults for O atom (to be pasted into control.in file)
  #  Be sure to double-check any results obtained with these settings for post-processing,
  #  e.g., with the "tight" defaults and larger basis sets.
  #
  ################################################################################
    species        O
  #     global species definitions
      nucleus             8
      mass                15.9994
  #
      l_hartree           4
  #
      cut_pot             3.5  1.5  1.0
      basis_dep_cutoff    1e-4
  #
      radial_base         36 5.0
      radial_multiplier   1
       angular_grids specified
        division   0.2659   50
        division   0.4451  110
        division   0.6052  194
        division   0.7543  302
  #      division   0.8014  434
  #      division   0.8507  590
  #      division   0.8762  770
  #      division   0.9023  974
  #      division   1.2339 1202
  #      outer_grid 974
        outer_grid 302
  ################################################################################
  #
  #  Definition of "minimal" basis
  #
  ################################################################################
  #     valence basis states
      valence      2  s   2.
      valence      2  p   4.
  #     ion occupancy
      ion_occ      2  s   1.
      ion_occ      2  p   3.
  ################################################################################
  #
  #  Suggested additional basis functions. For production calculations,
  #  uncomment them one after another (the most important basis functions are
  #  listed first).
  #
  #  Constructed for dimers: 1.0 A, 1.208 A, 1.5 A, 2.0 A, 3.0 A
  #
  ################################################################################
  #  "First tier" - improvements: -699.05 meV to -159.38 meV
       hydro 2 p 1.8
       hydro 3 d 7.6
       hydro 3 s 6.4
  #  "Second tier" - improvements: -49.91 meV to -5.39 meV
  #     hydro 4 f 11.6
  #     hydro 3 p 6.2
  #     hydro 3 d 5.6
  #     hydro 5 g 17.6
  #     hydro 1 s 0.75
  #  "Third tier" - improvements: -2.83 meV to -0.50 meV
  #     ionic 2 p auto
  #     hydro 4 f 10.8
  #     hydro 4 d 4.7
  #     hydro 2 s 6.8
  #  "Fourth tier" - improvements: -0.40 meV to -0.12 meV
  #     hydro 3 p 5
  #     hydro 3 s 3.3
  #     hydro 5 g 15.6
  #     hydro 4 f 17.6
  #     hydro 4 d 14
  # Further basis functions - -0.08 meV and below
  #     hydro 3 s 2.1
  #     hydro 4 d 11.6
  #     hydro 3 p 16
  #     hydro 2 s 17.2
  ################################################################################
  #
  #  FHI-aims code project
  #  VB, Fritz-Haber Institut, 2009
  #
  #  Suggested "light" defaults for Mo atom (to be pasted into control.in file)
  #  Be sure to double-check any results obtained with these settings for post-processing,
  #  e.g., with the "tight" defaults and larger basis sets.
  #
  ################################################################################
    species        Mo
  #     global species definitions
      nucleus             42
      mass                95.94
  #
      l_hartree           4
  #
      cut_pot             3.5  1.5  1.0
      basis_dep_cutoff    1e-4
  #
      radial_base         59 5.0
      radial_multiplier   1
      angular_grids specified
        division   0.4847   50
        division   0.9168  110
        division   1.2280  194
        division   1.6402  302
  #      division   1.8849  434
  #      division   2.0237  590
  #      division   2.0980  974
  #      division   2.7405 1202
  #      outer_grid  974
        outer_grid  302
  ################################################################################
  #
  #  Definition of "minimal" basis
  #
  ################################################################################
  #     valence basis states
      valence      5  s   1.
      valence      4  p   6.
      valence      4  d   5.
  #     ion occupancy
      ion_occ     5  s   0.
      ion_occ     4  p   6.
      ion_occ     4  d   4.
  ################################################################################
  #
  #  Suggested additional basis functions. For production calculations,
  #  uncomment them one after another (the most important basis functions are
  #  listed first).
  #
  #  Constructed for dimers: 1.675 A, 1.9 A, 2.375 A, 3.00 A, 4.00 A
  #
  ################################################################################
  #  "First tier"  - max. impr. -711.23  meV, min. impr. -21.07 meV
       hydro 4 f 8.4
       hydro 3 d 2.8
       ionic 5 p auto
  #     hydro 5 g 12
       ionic 5 s auto
  #  "Second tier" - max. impr. -39.38  meV, min. impr. -2.68 meV
  #     hydro 4 f 12.4
  #     hydro 3 d 3.3
  #     hydro 6 h 17.2
  #     hydro 4 f 7.6
  #     hydro 3 p 3.0
  #     hydro 1 s 0.65
  #  "Third tier"  - max. impr. -5.50 meV, min. impr. -0.47 meV
  #     hydro 4 f 29.2
  #     hydro 5 g 11.2
  #     hydro 3 d 6.8
  #     hydro 6 h 14.8
  #     hydro 2 p 2.3
  #     hydro 4 s 3.8
  #  "Fourth tier"  - max. impr. -0.58 meV, min. impr. -0.19 meV
  #     hydro 5 f 6.8
  #     hydro 5 d 14.8
  #     hydro 6 s 7.8
  #     hydro 5 g 20.8
  #     hydro 5 d 10.4
  #     hydro 5 p 9.8
  #  Further functions - -0.17 meV and below
  #     hydro 5 d 3.2
  ################################################################################
  #
  #  FHI-aims code project
  #  VB, Fritz-Haber Institut, 2009
  #
  #  Suggested "light" defaults for Sn atom (to be pasted into control.in file)
  #  Be sure to double-check any results obtained with these settings for post-processing,
  #  e.g., with the "tight" defaults and larger basis sets.
  #
  ################################################################################
    species        Sn
  #     global species definitions
      nucleus             50
      mass                118.710
  #
      l_hartree           4
  #
      cut_pot             3.5  1.5  1.0
      basis_dep_cutoff    1e-4
  #
      radial_base         63 5.0
      radial_multiplier   1
      angular_grids specified
        division   0.1666  110
        division   0.9058  302
  #      division   0.9669  434
  #      division   1.0315  590
  #      division   1.0999  770
  #      division   3.0459  974
  #      outer_grid  974
        outer_grid  302
  ################################################################################
  #
  #  Definition of "minimal" basis
  #
  ################################################################################
  #     valence basis states
      valence      5  s   2.
      valence      5  p   2.
      valence      4  d  10.
  #     ion occupancy
      ion_occ     5  s   1.
      ion_occ     5  p   1.
      ion_occ     4  d  10.
  ################################################################################
  #
  #  Suggested additional basis functions. For production calculations,
  #  uncomment them one after another (the most important basis functions are
  #  listed first).
  #
  #  Constructed for dimers: 2.10 A, 2.40 A, 3.75 A, 3.50 A, 4.50 A
  #
  ################################################################################
  #  "First tier" - max. impr. -189.53  meV, min. impr. -22.71 meV
       hydro 2 p 1.3
       hydro 3 d 3.7
  #     hydro 4 f 7.4
       ionic 5 s auto
  #  "Second tier" - max. impr. -15.73 meV, min. impr. -0.95 meV
  #     hydro 5 g 10.4
  #     hydro 4 p 6
  #     hydro 4 f 20
  #     hydro 3 d 4.3
  #     hydro 6 h 14.4
  #     hydro 4 f 5.6
  #     hydro 3 s 2.4
  #  "Third tier" - max. impr. -0.66 meV, min. impr. -0.09 meV
  #     hydro 5 g 9.2
  #     hydro 3 p 2.6
  #     hydro 3 d 7.2
  #     hydro 6 h 12.4
  #     hydro 5 f 38
  #     hydro 1 s 0.55
  #  "Fourth tier" - max. impr. -0.13 meV, min. impr. -0.04 meV
  #     hydro 4 p 8.4
  #     hydro 4 d 8
  #     hydro 6 p 2.1
  #     hydro 5 f 8.6
  #     hydro 1 s 4.2
  ################################################################################
  #
  #  FHI-aims code project
  #  VB, Fritz-Haber Institut, 2009
  #
  #  Suggested "light" defaults for Pb atom (to be pasted into control.in file)
  #  Be sure to double-check any results obtained with these settings for post-processing,
  #  e.g., with the "tight" defaults and larger basis sets.
  #
  #
  ################################################################################
    species        Pb
  #     global species definitions
      nucleus             82
      mass                207.2
  #
      l_hartree           4
  #
      cut_pot             4.0  1.5  1.0
      basis_dep_cutoff    1e-4
  #
      radial_base         74 5.5
      radial_multiplier   1
      angular_grids specified
        division   0.1064  110
        division   0.1579  194
        division   0.2150  302
  #      division   1.0164  434
  #      division   1.1544  590
  #      division   1.1970  770
  #      division   7.7779  974
  #      outer_grid  974
        outer_grid 302
  ################################################################################
  #
  #  Definition of "minimal" basis
  #
  ################################################################################
  #     valence basis states
      valence      6  s   2.
      valence      6  p   2.
      valence      5  d  10.
      valence      4  f  14.
  #     ion occupancy
      ion_occ     6  s    1.
      ion_occ     6  p    1.
      ion_occ     5  d   10.
      ion_occ     4  f   14.
  ################################################################################
  #
  #  Suggested additional basis functions. For production calculations,
  #  uncomment them one after another (the most important basis functions are
  #  listed first).
  #
  #  Constructed for dimers: 2.225, 2.50, 2.88, 3.625, 4.50
  #
  ################################################################################
  #  "First tier" - max. impr. -156.54 meV, min. impr. -14.49 meV
       hydro 3 p 2.3
       hydro 4 f 7.6
       hydro 3 d 3.5
  #     hydro 5 g 9.8
       hydro 3 s 3.2
  #  "Second tier" - max. impr. -4.38  meV, min. impr. -0.30 meV
  #     hydro 6 h 12.8
  #     hydro 3 d 2.4
  #     hydro 5 f 7.2
  #     hydro 5 f 14.8
  #     hydro 4 p 5.4
  #     ionic 6 s auto
  #  "Third tier" - max. impr. -0.86 meV, min. impr. -0.16 meV
  #     hydro 5 p 14.4
  #     hydro 5 g 8.2
  #     hydro 4 d 4.6
  #     hydro 6 h 12.4
  #     hydro 6 d 12.4
  #     hydro 4 s 4
  #     hydro 5 g 32.8
  #     hydro 5 f 9.4
  #  Further functions: -0.10 meV and below
  #     hydro 5 f 17.6
  #     hydro 7 p 19.6
  ################################################################################
  #
  #  FHI-aims code project
  #  VB, Fritz-Haber Institut, 2009
  #
  #  Suggested "light" defaults for Ru atom (to be pasted into control.in file)
  #  Be sure to double-check any results obtained with these settings for post-processing,
  #  e.g., with the "tight" defaults and larger basis sets.
  #
  ################################################################################
    species        Ru
  #     global species definitions
      nucleus             44
      mass                101.07
  #
      l_hartree           4
  #
      cut_pot             3.5  1.5  1.0
      basis_dep_cutoff    1e-4
  #
      radial_base         60 5.0
      radial_multiplier   1
      angular_grids specified
        division   0.4743   50
        division   0.8754  110
        division   1.1882  194
        division   1.6059  302
  #      division   1.8727  434
  #      division   1.9389  590
  #      division   2.0082  770
  #      division   2.0439  974
  #      division   2.6509 1202
  #      outer_grid   974
        outer_grid   302
  ################################################################################
  #
  #  Definition of "minimal" basis
  #
  ################################################################################
  #     valence basis states
      valence      5  s   1.
      valence      4  p   6.
      valence      4  d   7.
  #     ion occupancy
      ion_occ     5  s   0.
      ion_occ     4  p   6.
      ion_occ     4  d   6.
  ################################################################################
  #
  #  Suggested additional basis functions. For production calculations,
  #  uncomment them one after another (the most important basis functions are
  #  listed first).
  #
  #  Constructed for dimers: 1.725 A, 1.925 A, 2.375 A, 3.00 A, 4.00 A
  #
  ################################################################################
  #  "First tier"  - max. impr. -429.72  meV, min. impr. -24.83 meV
       hydro 4 f 8.8
       ionic 4 d auto
       ionic 5 p auto
  #     hydro 5 g 12.4
       hydro 3 s 2.4
  #  "Second tier" - max. impr. -18.57  meV, min. impr. -0.96 meV
  #     hydro 4 f 20
  #     hydro 6 h 16.8
  #     hydro 5 f 8.6
  #     hydro 5 g 8
  #     hydro 4 d 8
  #     hydro 4 p 5.4
  #     hydro 5 s 8.8
  #  "Third tier"  - max. impr. -1.17  meV, min. impr. -0.22 meV
  #     hydro 6 h 12.4
  #     hydro 5 f 38.4
  #     hydro 3 d 2.6
  #     hydro 5 p 10.4
  #     hydro 4 s 3.7
  #  "Fourth tier"  - max. impr. -0.29  meV, min. impr. -0.11 meV
  #     hydro 5 d 13.6
  #     hydro 5 f 14
  #     hydro 5 g 11.2
  #     hydro 2 p 1.7
  #     hydro 4 s 5.6
  
  -----------------------------------------------------------------------
  Completed first pass over input file control.in .
  -----------------------------------------------------------------------
  
  
  -----------------------------------------------------------------------
  Parsing geometry.in (first pass over file, find array dimensions only).
  The contents of geometry.in will be repeated verbatim below
  unless switched off by setting 'verbatim_writeout .false.' .
  in the first line of geometry.in .
  -----------------------------------------------------------------------
  
  #===============================================================================
  # Created using the Atomic Simulation Environment (ASE)
  
  # Mon Feb  2 12:50:18 2026
  
  #=======================================================
  lattice_vector 4.6356952700000003 0.0000000000000000 0.0000000000000000
  lattice_vector 0.0000000000000000 4.6356952700000003 0.0000000000000000
  lattice_vector 0.0000000000000000 0.0000000000000000 3.1897004500000001
  atom 2.3178476350000001 2.3178476350000001 0.0000000000000000 Mo
  atom 0.0000000000000000 0.0000000000000000 1.5948502250000001 Mo
  atom 3.7303676258148770 0.9053276441851230 0.0000000000000000 O
  atom 3.2231752791851234 3.2231752791851234 1.5948502250000001 O
  atom 0.9053276441851230 3.7303676258148770 0.0000000000000000 O
  atom 1.4125199908148771 1.4125199908148771 1.5948502250000001 O
  
  -----------------------------------------------------------------------
  Completed first pass over input file geometry.in .
  -----------------------------------------------------------------------
  

  Basic array size parameters:
  | Number of species                 :        6
  | Number of atoms                   :        6
  | Number of lattice vectors         :        3
  | Max. basis fn. angular momentum   :        3
  | Max. atomic/ionic basis occupied n:        6
  | Max. number of basis fn. types    :        3
  | Max. radial fns per species/type  :       15
  | Max. logarithmic grid size        :     1491
  | Max. radial integration grid size :       74
  | Max. angular integration grid size:      302
  | Max. angular grid division number :        8
  | Radial grid for Hartree potential :     1491
  | Number of spin channels           :        1

------------------------------------------------------------
          Reading file control.in.
------------------------------------------------------------
  XC: Using PBE gradient-corrected functionals.
  Charge =   0.000000E+00: Neutral system requested explicitly.
  Spin treatment: No spin polarisation.
  Scalar relativistic treatment of kinetic energy: on-site free-atom approximation to ZORA.
  Charge =   0.000000E+00: Neutral system requested explicitly.
  Occupation type: Gaussian broadening, width =   0.500000E-01 eV.
  Using pulay charge density mixing.
  Pulay mixing - number of memorized iterations:   10
  Charge density mixing - mixing parameter:     0.2000
  Convergence accuracy of self-consistent charge density:  0.1000E-01
  Convergence accuracy of sum of eigenvalues:  0.1000E+00
  Convergence accuracy of total energy:  0.1000E-02
  Convergence accuracy of forces:  0.1000E-01
  Maximum number of s.-c. iterations  :  1000
  Geometry relaxation: Modified BFGS - TRM (trust radius method) for lattice optimization.
  Convergence accuracy for geometry relaxation: Maximum force <   0.500000E-01 eV/A.
  The 'LVL' version of RI (resolution of identity) technique is used.
  ** This is a localized expansion of all basis function products.
     Its intended use are Hartree-Fock and hybrid functionals.
     For RPA, MP2, GW, etc., LVL is not yet as accurate. In those cases, check carefully.
  Found k-point grid:         8         8         8
  Hirshfeld charge analysis will be performed.
 
  Reading configuration options for species Ir                  .
  | Found nuclear charge :  77.0000
  | Found atomic mass :    192.217000000000      amu
  | Found l_max for Hartree potential  :   4
  | Found cutoff potl. onset [A], width [A], scale factor :    3.50000    1.50000    1.00000
  | Threshold for basis-dependent cutoff potential is   0.100000E-03
  | Found data for basic radial integration grid :    72 points, outermost radius =    5.000 A
  | Found multiplier for basic radial grid :   1
  | Found angular grid specification: user-specified.
  | Specified grid contains     5 separate shells.
  | Check grid settings after all constraints further below.
  | Found free-atom valence shell :  6 s   2.000
  | Found free-atom valence shell :  5 p   6.000
  | Found free-atom valence shell :  5 d   7.000
  | Found free-atom valence shell :  4 f  14.000
  | Found free-ion valence shell :  6 s   1.000
  | Found free-ion valence shell :  5 p   6.000
  | Found free-ion valence shell :  5 d   6.000
  | Found free-ion valence shell :  4 f  14.000
  | Found hydrogenic basis function :  4 f   8.200
  | Found ionic basis function :  6 p , default cutoff radius.
  | Found hydrogenic basis function :  3 d   2.900
  | Found ionic basis function :  6 s , default cutoff radius.
 | Encountered keyword species, ending the description of species Ir                  .
  Species Ir                  : Missing cutoff potential type.
  Defaulting to exp(1/x)/(1-x)^2 type cutoff potential.
  Species Ir: No 'logarithmic' tag. Using default grid for free atom:
  | Default logarithmic grid data [bohr] : 0.1000E-03 0.1000E+03 0.1012E+01
  | Will include ionic basis functions of  2.0-fold positive Ir                   ion.
  Species Ir: On-site basis accuracy parameter (for Gram-Schmidt orthonormalisation) not specified.
  Using default value basis_acc =  0.1000000E-03.
  Species Ir                  : Using default innermost maximum threshold i_radial=  2 for radial functions.
  Species Ir                  : Default cutoff onset for free atom density etc. : 0.35000000E+01 AA.
  Species Ir                  : Basic radial grid will be enhanced according to radial_multiplier =   1, to contain    72 grid points.
 
  Reading configuration options for species O                   .
  | Found nuclear charge :   8.0000
  | Found atomic mass :    15.9994000000000      amu
  | Found l_max for Hartree potential  :   4
  | Found cutoff potl. onset [A], width [A], scale factor :    3.50000    1.50000    1.00000
  | Threshold for basis-dependent cutoff potential is   0.100000E-03
  | Found data for basic radial integration grid :    36 points, outermost radius =    5.000 A
  | Found multiplier for basic radial grid :   1
  | Found angular grid specification: user-specified.
  | Specified grid contains     5 separate shells.
  | Check grid settings after all constraints further below.
  | Found free-atom valence shell :  2 s   2.000
  | Found free-atom valence shell :  2 p   4.000
  | Found free-ion valence shell :  2 s   1.000
  | Found free-ion valence shell :  2 p   3.000
  | Found hydrogenic basis function :  2 p   1.800
  | Found hydrogenic basis function :  3 d   7.600
  | Found hydrogenic basis function :  3 s   6.400
 | Encountered keyword species, ending the description of species O                   .
  Species O                   : Missing cutoff potential type.
  Defaulting to exp(1/x)/(1-x)^2 type cutoff potential.
  Species O : No 'logarithmic' tag. Using default grid for free atom:
  | Default logarithmic grid data [bohr] : 0.1000E-03 0.1000E+03 0.1012E+01
  Species O : On-site basis accuracy parameter (for Gram-Schmidt orthonormalisation) not specified.
  Using default value basis_acc =  0.1000000E-03.
  Species O                   : Using default innermost maximum threshold i_radial=  2 for radial functions.
  Species O                   : Default cutoff onset for free atom density etc. : 0.35000000E+01 AA.
  Species O                   : Basic radial grid will be enhanced according to radial_multiplier =   1, to contain    36 grid points.
 
  Reading configuration options for species Mo                  .
  | Found nuclear charge :  42.0000
  | Found atomic mass :    95.9400000000000      amu
  | Found l_max for Hartree potential  :   4
  | Found cutoff potl. onset [A], width [A], scale factor :    3.50000    1.50000    1.00000
  | Threshold for basis-dependent cutoff potential is   0.100000E-03
  | Found data for basic radial integration grid :    59 points, outermost radius =    5.000 A
  | Found multiplier for basic radial grid :   1
  | Found angular grid specification: user-specified.
  | Specified grid contains     5 separate shells.
  | Check grid settings after all constraints further below.
  | Found free-atom valence shell :  5 s   1.000
  | Found free-atom valence shell :  4 p   6.000
  | Found free-atom valence shell :  4 d   5.000
  | Found free-ion valence shell :  5 s   0.000
  | Found free-ion valence shell :  4 p   6.000
  | Found free-ion valence shell :  4 d   4.000
  | Found hydrogenic basis function :  4 f   8.400
  | Found hydrogenic basis function :  3 d   2.800
  | Found ionic basis function :  5 p , default cutoff radius.
  | Found ionic basis function :  5 s , default cutoff radius.
 | Encountered keyword species, ending the description of species Mo                  .
  Species Mo                  : Missing cutoff potential type.
  Defaulting to exp(1/x)/(1-x)^2 type cutoff potential.
  Species Mo: No 'logarithmic' tag. Using default grid for free atom:
  | Default logarithmic grid data [bohr] : 0.1000E-03 0.1000E+03 0.1012E+01
  | Will include ionic basis functions of  2.0-fold positive Mo                   ion.
  Species Mo: On-site basis accuracy parameter (for Gram-Schmidt orthonormalisation) not specified.
  Using default value basis_acc =  0.1000000E-03.
  Species Mo                  : Using default innermost maximum threshold i_radial=  2 for radial functions.
  Species Mo                  : Default cutoff onset for free atom density etc. : 0.35000000E+01 AA.
  Species Mo                  : Basic radial grid will be enhanced according to radial_multiplier =   1, to contain    59 grid points.
 
  Reading configuration options for species Sn                  .
  | Found nuclear charge :  50.0000
  | Found atomic mass :    118.710000000000      amu
  | Found l_max for Hartree potential  :   4
  | Found cutoff potl. onset [A], width [A], scale factor :    3.50000    1.50000    1.00000
  | Threshold for basis-dependent cutoff potential is   0.100000E-03
  | Found data for basic radial integration grid :    63 points, outermost radius =    5.000 A
  | Found multiplier for basic radial grid :   1
  | Found angular grid specification: user-specified.
  | Specified grid contains     3 separate shells.
  | Check grid settings after all constraints further below.
  | Found free-atom valence shell :  5 s   2.000
  | Found free-atom valence shell :  5 p   2.000
  | Found free-atom valence shell :  4 d  10.000
  | Found free-ion valence shell :  5 s   1.000
  | Found free-ion valence shell :  5 p   1.000
  | Found free-ion valence shell :  4 d  10.000
  | Found hydrogenic basis function :  2 p   1.300
  | Found hydrogenic basis function :  3 d   3.700
  | Found ionic basis function :  5 s , default cutoff radius.
 | Encountered keyword species, ending the description of species Sn                  .
  Species Sn                  : Missing cutoff potential type.
  Defaulting to exp(1/x)/(1-x)^2 type cutoff potential.
  Species Sn: No 'logarithmic' tag. Using default grid for free atom:
  | Default logarithmic grid data [bohr] : 0.1000E-03 0.1000E+03 0.1012E+01
  | Will include ionic basis functions of  2.0-fold positive Sn                   ion.
  Species Sn: On-site basis accuracy parameter (for Gram-Schmidt orthonormalisation) not specified.
  Using default value basis_acc =  0.1000000E-03.
  Species Sn                  : Using default innermost maximum threshold i_radial=  2 for radial functions.
  Species Sn                  : Default cutoff onset for free atom density etc. : 0.35000000E+01 AA.
  Species Sn                  : Basic radial grid will be enhanced according to radial_multiplier =   1, to contain    63 grid points.
 
  Reading configuration options for species Pb                  .
  | Found nuclear charge :  82.0000
  | Found atomic mass :    207.200000000000      amu
  | Found l_max for Hartree potential  :   4
  | Found cutoff potl. onset [A], width [A], scale factor :    4.00000    1.50000    1.00000
  | Threshold for basis-dependent cutoff potential is   0.100000E-03
  | Found data for basic radial integration grid :    74 points, outermost radius =    5.500 A
  | Found multiplier for basic radial grid :   1
  | Found angular grid specification: user-specified.
  | Specified grid contains     4 separate shells.
  | Check grid settings after all constraints further below.
  | Found free-atom valence shell :  6 s   2.000
  | Found free-atom valence shell :  6 p   2.000
  | Found free-atom valence shell :  5 d  10.000
  | Found free-atom valence shell :  4 f  14.000
  | Found free-ion valence shell :  6 s   1.000
  | Found free-ion valence shell :  6 p   1.000
  | Found free-ion valence shell :  5 d  10.000
  | Found free-ion valence shell :  4 f  14.000
  | Found hydrogenic basis function :  3 p   2.300
  | Found hydrogenic basis function :  4 f   7.600
  | Found hydrogenic basis function :  3 d   3.500
  | Found hydrogenic basis function :  3 s   3.200
 | Encountered keyword species, ending the description of species Pb                  .
  Species Pb                  : Missing cutoff potential type.
  Defaulting to exp(1/x)/(1-x)^2 type cutoff potential.
  Species Pb: No 'logarithmic' tag. Using default grid for free atom:
  | Default logarithmic grid data [bohr] : 0.1000E-03 0.1000E+03 0.1012E+01
  Species Pb: On-site basis accuracy parameter (for Gram-Schmidt orthonormalisation) not specified.
  Using default value basis_acc =  0.1000000E-03.
  Species Pb                  : Using default innermost maximum threshold i_radial=  2 for radial functions.
  Species Pb                  : Default cutoff onset for free atom density etc. : 0.40000000E+01 AA.
  Species Pb                  : Basic radial grid will be enhanced according to radial_multiplier =   1, to contain    74 grid points.
 
  Reading configuration options for species Ru                  .
  | Found nuclear charge :  44.0000
  | Found atomic mass :    101.070000000000      amu
  | Found l_max for Hartree potential  :   4
  | Found cutoff potl. onset [A], width [A], scale factor :    3.50000    1.50000    1.00000
  | Threshold for basis-dependent cutoff potential is   0.100000E-03
  | Found data for basic radial integration grid :    60 points, outermost radius =    5.000 A
  | Found multiplier for basic radial grid :   1
  | Found angular grid specification: user-specified.
  | Specified grid contains     5 separate shells.
  | Check grid settings after all constraints further below.
  | Found free-atom valence shell :  5 s   1.000
  | Found free-atom valence shell :  4 p   6.000
  | Found free-atom valence shell :  4 d   7.000
  | Found free-ion valence shell :  5 s   0.000
  | Found free-ion valence shell :  4 p   6.000
  | Found free-ion valence shell :  4 d   6.000
  | Found hydrogenic basis function :  4 f   8.800
  | Found ionic basis function :  4 d , default cutoff radius.
  | Found ionic basis function :  5 p , default cutoff radius.
  | Found hydrogenic basis function :  3 s   2.400
  Species Ru                  : Missing cutoff potential type.
  Defaulting to exp(1/x)/(1-x)^2 type cutoff potential.
  Species Ru: No 'logarithmic' tag. Using default grid for free atom:
  | Default logarithmic grid data [bohr] : 0.1000E-03 0.1000E+03 0.1012E+01
  | Will include ionic basis functions of  2.0-fold positive Ru                   ion.
  Species Ru: On-site basis accuracy parameter (for Gram-Schmidt orthonormalisation) not specified.
  Using default value basis_acc =  0.1000000E-03.
  Species Ru                  : Using default innermost maximum threshold i_radial=  2 for radial functions.
  Species Ru                  : Default cutoff onset for free atom density etc. : 0.35000000E+01 AA.
  Species Ru                  : Basic radial grid will be enhanced according to radial_multiplier =   1, to contain    60 grid points.
 
  Finished reading input file 'control.in'.
 
------------------------------------------------------------


------------------------------------------------------------
          Reading geometry description geometry.in.
------------------------------------------------------------
  | The smallest distance between any two atoms is         1.99760493 AA.
  | The first atom of this pair is atom number                      2 .
  | The second atom of this pair is atom number                     4 .
  | Wigner-Seitz cell of the first atom image           0     0     0 .
  | (The Wigner-Seitz cell of the second atom is 0 0 0  by definition.)

  Symmetry information by spglib:
  | Precision set to  0.1E-04
  | Number of Operations  : 16
  | Space group           : 136
  | International         : P4_2/mnm
  | Schoenflies           : D4h^14
  Input structure read successfully.
  The structure contains        6 atoms,  and a total of        116.000 electrons.

  Input geometry:
  | Unit cell:
  |        4.63569527        0.00000000        0.00000000
  |        0.00000000        4.63569527        0.00000000
  |        0.00000000        0.00000000        3.18970045
  | Atomic structure:
  |       Atom                x [A]            y [A]            z [A]
  |    1: Species Mo            2.31784764        2.31784764        0.00000000
  |    2: Species Mo            0.00000000        0.00000000        1.59485023
  |    3: Species O             3.73036763        0.90532764        0.00000000
  |    4: Species O             3.22317528        3.22317528        1.59485023
  |    5: Species O             0.90532764        3.73036763        0.00000000
  |    6: Species O             1.41251999        1.41251999        1.59485023

  Lattice parameters for 3D lattice (in Angstroms) :     4.635695    4.635695    3.189700
  Angle(s) between unit vectors (in degrees)       :    90.000000   90.000000   90.000000


  Quantities derived from the lattice vectors (in Angstrom^-1):
  | Reciprocal lattice vector 1:  1.355392  0.000000  0.000000
  | Reciprocal lattice vector 2:  0.000000  1.355392  0.000000
  | Reciprocal lattice vector 3:  0.000000  0.000000  1.969836
  | Unit cell volume                               :   0.685456E+02  Angstrom^3

  Fractional coordinates:
                         L1                L2                L3
       atom_frac         0.50000000        0.50000000        0.00000000  Mo
       atom_frac         0.00000000        0.00000000        0.50000000  Mo
       atom_frac         0.80470510        0.19529490        0.00000000  O
       atom_frac         0.69529490        0.69529490        0.50000000  O
       atom_frac         0.19529490        0.80470510        0.00000000  O
       atom_frac         0.30470510        0.30470510        0.50000000  O

  Slab Identifier: This seems to be a bulk system.
 
  Finished reading input file 'geometry.in'.
 

 
  Consistency checks for stacksize environment parameter are next.
 
  | Maximum stacksize for task 0: unlimited
  | Maximum stacksize for task 1: unlimited
  | Maximum stacksize for task 2: unlimited
  | Maximum stacksize for task 3: unlimited
  | Maximum stacksize for task 4: unlimited
  | Maximum stacksize for task 5: unlimited
  | Maximum stacksize for task 6: unlimited
  | Maximum stacksize for task 7: unlimited
  | Maximum stacksize for task 8: unlimited
  | Maximum stacksize for task 9: unlimited
  | Maximum stacksize for task 10: unlimited
  | Maximum stacksize for task 11: unlimited
  | Maximum stacksize for task 12: unlimited
  | Maximum stacksize for task 13: unlimited
  | Maximum stacksize for task 14: unlimited
  | Maximum stacksize for task 15: unlimited
  | Current stacksize for task 0: unlimited
  | Current stacksize for task 1: unlimited
  | Current stacksize for task 2: unlimited
  | Current stacksize for task 3: unlimited
  | Current stacksize for task 4: unlimited
  | Current stacksize for task 5: unlimited
  | Current stacksize for task 6: unlimited
  | Current stacksize for task 7: unlimited
  | Current stacksize for task 8: unlimited
  | Current stacksize for task 9: unlimited
  | Current stacksize for task 10: unlimited
  | Current stacksize for task 11: unlimited
  | Current stacksize for task 12: unlimited
  | Current stacksize for task 13: unlimited
  | Current stacksize for task 14: unlimited
  | Current stacksize for task 15: unlimited
 
  Consistency checks for the contents of control.in are next.
 
  MPI_IN_PLACE appears to work with this MPI implementation.
  | Keeping use_mpi_in_place .true. (see manual).
  Target number of points in a grid batch is not set. Defaulting to  100
  Method for grid partitioning is not set. Defaulting to parallel hash+maxmin partitioning.
  Batch size limit is not set. Defaulting to    200
  By default, will store active basis functions for each batch.
  If in need of memory, prune_basis_once .false. can be used to disable this option.
  communication_type for Hartree potential was not specified.
  Defaulting to calc_hartree .
  Pulay mixer: Number of initial linear mixing iterations not set.
  Defaulting to    0 iterations.
  Work space size for distributed Hartree potential not set.
  Defaulting to   0.200000E+03 MB.
  Algorithm-dependent basis array size parameters:
  | n_max_pulay                         :       10
  Presetting      1001 iterations before the initial mixing cycle
  is restarted anyway using the sc_init_iter criterion / keyword.
  Presetting a factor      1.000 between actual scf density residual
  and density convergence criterion sc_accuracy_rho below which sc_init_iter
  takes no effect.
  No maximum number of relaxation steps, defaulting to     1000
  Default initial Hessian is Lindh matrix (thres = 15.00) plus  0.200000E+01 eV/A^2 times unity.
  No maximum energy tolerance for TRM/BFGS moves, defaulting to   0.150000E-02
  Maximum energy tolerance by which TRM/BFGS trajectory may increase over multiple steps:   0.300000E-02
  No harmonic length scale. Defaulting to   0.250000E-01 A.
  No trust radius initializer. Defaulting to   0.200000E+00 A.
  Unit cell relaxation: Unit cell will be relaxed fully.
  Unit cell relaxation: Analytical stress will be used.
  Analytical stress will be computed.
  Analytical stress calculation: Only the upper triangle is calculated.
                                 Final output is symmetrized.
  Analytical stress calculation: scf convergence accuracy of stress not set.
                                 Analytical stress self-consistency will not be checked explicitly.
                                 Be sure to set other criteria like sc_accuracy_rho tight enough.
  Forces evaluation will include force correction term due to incomplete self-consistency (default).
  Handling of forces: Unphysical translation and rotation will be removed from forces.
  No accuracy limit for integral partition fn. given. Defaulting to  0.1000E-14.
  No threshold value for u(r) in integrations given. Defaulting to  0.1000E-05.
  No accuracy for occupation numbers given. Defaulting to  0.1000E-12.
  No threshold value for occupation numbers given. Defaulting to  0.0000E+00.
  No accuracy for fermi level given. Defaulting to  0.1000E-19.
  Maximum # of iterations to find E_F not set. Defaulting to  200.
  Preferred method for the eigenvalue solver ('KS_method') not specified in 'control.in'.
  Defaulting to serial version, LAPACK (via ELSI), since more k-points than CPUs available.
  Will not use alltoall communication since running on < 1024 CPUs.
  Threshold for basis singularities not set.
  Default threshold for basis singularities:  0.1000E-04
  partition_type (choice of integration weights) for integrals was not specified.
  | Using a version of the partition function of Stratmann and coworkers ('stratmann_sparse').
  | At each grid point, the set of atoms used to build the partition table is smoothly restricted to
  | only those atoms whose free-atom density would be non-zero at that grid point.
  Partitioning for Hartree potential was not defined. Using partition_type for integrals.
  | Adjusted default value of keyword multip_moments_threshold to:       0.10000000E-11
  | This value may affect high angular momentum components of the Hartree potential in periodic systems.
  No q(lm)/r^(l+1) cutoff set for long-range Hartree potential.
  | Using default value of  0.100000E-09 .
  | Verify using the multipole_threshold keyword.
  Defaulting to new monopole extrapolation.
  Density update method: automatic selection selected.
  Using density matrix based charge density update.
  Using density matrix based charge density update.
  Using packed matrix style: index .
  Geometry relaxation: A file "geometry.in.next_step" is written out by default after each step.
  | This file contains the geometry of the current relaxation step as well as
  | the current Hessian matrix needed to restart the relaxation algorithm.
  | If you do not want part or all of this information, use the keywords
  | "write_restart_geometry" or "hessian_to_restart_geometry" to switch the output off.
  Defaulting to use time-reversal symmetry for k-point grid.
  Charge integration errors on the 3D integration grid will be compensated
  by explicit normalization and distribution of residual charges.
  Use the "compensate_multipole_errors" flag to change this behaviour.
  Set 'collect_eigenvectors' to be '.true.' for all serial calculations. This is mandatory.
  Set 'collect_eigenvectors' to be '.true.' for KS_method lapack_fast and serial.
 
  Consistency checks for the contents of geometry.in are next.
 

  Range separation radius for Ewald summation (hartree_convergence_parameter):      3.14044875 bohr.
  Number of empty states per atom not set in control.in - providing a guess from actual geometry.
  | Total number of empty states used during s.c.f. cycle:       23
  If you use a very high smearing, use empty_states (per atom!) in control.in to increase this value.

  Structure-dependent array size parameters: 
  | Maximum number of distinct radial functions  :       85
  | Maximum number of basis functions            :      136
  | Number of Kohn-Sham states (occupied + empty):       81
------------------------------------------------------------
  After read_input_data [GB]:    641.01

  Performing system and environment tests:
  | Environment variable OMP_NUM_THREADS correctly set to 1.
  | Checking for ScaLAPACK...
  | Testing pdtran()...
  | All pdtran() tests passed.
  After prepare_system [GB]:    640.80

------------------------------------------------------------
          Preparing all fixed parts of the calculation.
------------------------------------------------------------
  Determining machine precision:
    2.225073858507201E-308
  Setting up grids for atomic and cluster calculations.

  Creating wave function, potential, and density for free atoms.
  Runtime choices for atomic solver:
  | atomic solver xc        : PBE
  | compute density gradient: 1
  | compute kinetic density : F

  Species: Ir

  List of occupied orbitals and eigenvalues:
    n    l              occ      energy [Ha]    energy [eV]
    1    0           2.0000     -3052.444536    -83061.2419
    2    0           2.0000      -498.070369    -13553.1843
    3    0           2.0000      -114.992321     -3129.1003
    4    0           2.0000       -24.426830      -664.6879
    5    0           2.0000        -3.591631       -97.7333
    6    0           2.0000        -0.227166        -6.1815
    2    1           6.0000      -431.889462    -11752.3102
    3    1           6.0000       -96.041142     -2613.4124
    4    1           6.0000       -18.251525      -496.6493
    5    1           6.0000        -2.001793       -54.4716
    3    2          10.0000       -75.283874     -2048.5785
    4    2          10.0000       -10.689254      -290.8694
    5    2           7.0000        -0.257583        -7.0092
    4    3          14.0000        -2.286771       -62.2262


  Species: O

  List of occupied orbitals and eigenvalues:
    n    l              occ      energy [Ha]    energy [eV]
    1    0           2.0000       -18.926989      -515.0296
    2    0           2.0000        -0.880247       -23.9527
    2    1           4.0000        -0.331514        -9.0210


  Species: Mo

  List of occupied orbitals and eigenvalues:
    n    l              occ      energy [Ha]    energy [eV]
    1    0           2.0000      -745.333848    -20281.5659
    2    0           2.0000      -103.277699     -2810.3292
    3    0           2.0000       -17.506203      -476.3680
    4    0           2.0000        -2.348313       -63.9008
    5    0           1.0000        -0.135274        -3.6810
    2    1           6.0000       -92.298078     -2511.5585
    3    1           6.0000       -13.925523      -378.9328
    4    1           6.0000        -1.398018       -38.0420
    3    2          10.0000        -8.108532      -220.6444
    4    2           5.0000        -0.123864        -3.3705


  Species: Sn

  List of occupied orbitals and eigenvalues:
    n    l              occ      energy [Ha]    energy [eV]
    1    0           2.0000     -1102.296182    -29995.0052
    2    0           2.0000      -161.927379     -4406.2682
    3    0           2.0000       -31.080946      -845.7556
    4    0           2.0000        -4.904712      -133.4640
    5    0           2.0000        -0.374667       -10.1952
    2    1           6.0000      -145.296107     -3953.7082
    3    1           6.0000       -25.685749      -698.9448
    4    1           6.0000        -3.278700       -89.2180
    5    1           2.0000        -0.121462        -3.3051
    3    2          10.0000       -17.397547      -473.4113
    4    2          10.0000        -0.933635       -25.4055


  Species: Pb

  List of occupied orbitals and eigenvalues:
    n    l              occ      energy [Ha]    energy [eV]
    1    0           2.0000     -3583.275374    -97505.8840
    2    0           2.0000      -591.288386    -16089.7756
    3    0           2.0000      -139.815632     -3804.5769
    4    0           2.0000       -31.498090      -857.1066
    5    0           2.0000        -5.283870      -143.7814
    6    0           2.0000        -0.434182       -11.8147
    2    1           6.0000      -505.944692    -13767.4555
    3    1           6.0000      -115.938523     -3154.8477
    4    1           6.0000       -23.732126      -645.7840
    5    1           6.0000        -3.141456       -85.4834
    6    1           2.0000        -0.120461        -3.2779
    3    2          10.0000       -91.723313     -2495.9183
    4    2          10.0000       -14.773305      -402.0021
    5    2          10.0000        -0.769506       -20.9393
    4    3          14.0000        -4.885932      -132.9530


  Species: Ru

  List of occupied orbitals and eigenvalues:
    n    l              occ      energy [Ha]    energy [eV]
    1    0           2.0000      -826.832094    -22499.2460
    2    0           2.0000      -116.419684     -3167.9408
    3    0           2.0000       -20.416209      -555.5533
    4    0           2.0000        -2.795705       -76.0750
    5    0           1.0000        -0.145018        -3.9461
    2    1           6.0000      -104.230680     -2836.2611
    3    1           6.0000       -16.432227      -447.1436
    4    1           6.0000        -1.694761       -46.1168
    3    2          10.0000       -10.032297      -272.9927
    4    2           7.0000        -0.181771        -4.9462


  Adding cutoff potential to free-atom effective potential.
  Creating fixed part of basis set: Ionic, confined, hydrogenic.
 
  Ir                   ion:

  List of free ionic orbitals and eigenvalues:
    n    l      energy [Ha]    energy [eV]
    1    0     -3053.298304    -83084.4741
    2    0      -498.870318    -13574.9520
    3    0      -115.782705     -3150.6077
    4    0       -25.214600      -686.1242
    5    0        -4.372598      -118.9844
    6    0        -0.836226       -22.7549
    2    1      -432.688049    -11774.0409
    3    1       -96.831128     -2634.9090
    4    1       -19.039114      -518.0807
    5    1        -2.775651       -75.5293
    3    2       -76.073646     -2070.0692
    4    2       -11.476608      -312.2944
    5    2        -0.986555       -26.8455
    4    3        -3.073307       -83.6289


  List of ionic basis orbitals and eigenvalues:
    n    l      energy [Ha]    energy [eV]    outer radius [A]
    6    1        -0.547617       -14.9014       4.565494
    6    0        -0.836151       -22.7528       4.510020

 
  Ir                   hydrogenic:
 
  List of hydrogenic basis orbitals: 
    n    l      effective z      eigenvalue [eV]  inner max. [A]     outer max. [A]     outer radius [A]   
    4    3         8.200000       -57.1775           1.027449           1.027449           4.191052
    3    2         2.900000       -12.5572           1.615110           1.615110           4.621649
 
 
  O                    hydrogenic:
 
  List of hydrogenic basis orbitals: 
    n    l      effective z      eigenvalue [eV]  inner max. [A]     outer max. [A]     outer radius [A]   
    2    1         1.800000       -10.9749           1.164242           1.164242           4.578029
    3    2         7.600000       -87.3180           0.624125           0.624125           3.251020
    3    0         6.400000       -61.9207           0.061167           1.081902           4.001998
 
 
  Mo                   ion:

  List of free ionic orbitals and eigenvalues:
    n    l      energy [Ha]    energy [eV]
    1    0      -746.048685    -20301.0176
    2    0      -103.980912     -2829.4646
    3    0       -18.206601      -495.4268
    4    0        -3.040545       -82.7374
    2    1       -93.001013     -2530.6863
    3    1       -14.625827      -397.9890
    4    1        -2.084855       -56.7318
    3    2        -8.808854      -239.7011
    4    2        -0.765435       -20.8285


  List of ionic basis orbitals and eigenvalues:
    n    l      energy [Ha]    energy [eV]    outer radius [A]
    5    1        -0.462835       -12.5944       4.598077
    5    0        -0.649837       -17.6830       4.542208

 
  Mo                   hydrogenic:
 
  List of hydrogenic basis orbitals: 
    n    l      effective z      eigenvalue [eV]  inner max. [A]     outer max. [A]     outer radius [A]   
    4    3         8.400000       -60.0006           1.009788           1.009788           4.119012
    3    2         2.800000       -11.6571           1.666898           1.666898           4.598077
 
 
  Sn                   ion:

  List of free ionic orbitals and eigenvalues:
    n    l      energy [Ha]    energy [eV]
    1    0     -1103.038848    -30015.2142
    2    0      -162.645837     -4425.8184
    3    0       -31.796409      -865.2243
    4    0        -5.617563      -152.8617
    5    0        -0.990726       -26.9590
    2    1      -146.014658     -3973.2610
    3    1       -26.401112      -718.4108
    4    1        -3.991102      -108.6034
    5    1        -0.680547       -18.5186
    3    2       -18.112528      -492.8670
    4    2        -1.640216       -44.6326


  List of ionic basis orbitals and eigenvalues:
    n    l      energy [Ha]    energy [eV]    outer radius [A]
    5    0        -0.990700       -26.9583       4.418321

 
  Sn                   hydrogenic:
 
  List of hydrogenic basis orbitals: 
    n    l      effective z      eigenvalue [eV]  inner max. [A]     outer max. [A]     outer radius [A]   
    2    1         1.300000        -5.4635           1.563045           1.563045           4.583370
    3    2         3.700000       -20.6750           1.285357           1.285357           4.583370
 
 
  Pb                   hydrogenic:
 
  List of hydrogenic basis orbitals: 
    n    l      effective z      eigenvalue [eV]  inner max. [A]     outer max. [A]     outer radius [A]   
    3    1         2.300000        -7.3978           0.685138           2.597082           5.087378
    4    3         7.600000       -49.1160           1.117244           1.117244           4.447258
    3    2         3.500000       -18.5104           1.358613           1.358613           5.025564
    3    0         3.200000       -15.3818           0.122229           2.161957           5.087378
 
 
  Ru                   ion:

  List of free ionic orbitals and eigenvalues:
    n    l      energy [Ha]    energy [eV]
    1    0      -827.607546    -22520.3471
    2    0      -117.180795     -3188.6517
    3    0       -21.174362      -576.1837
    4    0        -3.545813       -96.4865
    2    1      -104.991490     -2856.9638
    3    1       -17.190282      -467.7714
    4    1        -2.439764       -66.3894
    3    2       -10.790347      -293.6203
    4    2        -0.887062       -24.1382


  List of ionic basis orbitals and eigenvalues:
    n    l      energy [Ha]    energy [eV]    outer radius [A]
    4    2        -0.887040       -24.1376       4.078659
    5    1        -0.492348       -13.3975       4.609033

 
  Ru                   hydrogenic:
 
  List of hydrogenic basis orbitals: 
    n    l      effective z      eigenvalue [eV]  inner max. [A]     outer max. [A]     outer radius [A]   
    4    3         8.800000       -65.8512           0.963888           0.963888           4.029101
    3    0         2.400000        -7.2252           0.161762           2.594630           4.609033
 
  Creating atomic-like basis functions for current effective potential.

  Species Ir                  :

  List of atomic basis orbitals and eigenvalues:
    n    l      energy [Ha]    energy [eV]    outer radius [A]
    1    0     -3052.444536    -83061.2419       0.123954
    2    0      -498.070369    -13553.1843       0.325605
    3    0      -114.992321     -3129.1003       0.678025
    4    0       -24.426830      -664.6879       1.429255
    5    0        -3.591631       -97.7333       3.488867
    6    0        -0.227166        -6.1815       4.565494
    2    1      -431.889462    -11752.3102       0.341923
    3    1       -96.041142     -2613.4124       0.729628
    4    1       -18.251525      -496.6493       1.615110
    5    1        -2.001793       -54.4716       4.140128
    3    2       -75.283874     -2048.5785       0.785157
    4    2       -10.689254      -290.8694       1.988196
    5    2        -0.257583        -7.0092       4.510020
    4    3        -2.286771       -62.2262       3.575221


  Species O                   :

  List of atomic basis orbitals and eigenvalues:
    n    l      energy [Ha]    energy [eV]    outer radius [A]
    1    0       -18.926989      -515.0296       1.415765
    2    0        -0.880247       -23.9527       4.413171
    2    1        -0.331514        -9.0210       4.522403


  Species Mo                  :

  List of atomic basis orbitals and eigenvalues:
    n    l      energy [Ha]    energy [eV]    outer radius [A]
    1    0      -745.333848    -20281.5659       0.247552
    2    0      -103.277699     -2810.3292       0.682864
    3    0       -17.506203      -476.3680       1.626637
    4    0        -2.348313       -63.9008       4.019524
    5    0        -0.135274        -3.6810       4.598077
    2    1       -92.298078     -2511.5585       0.699766
    3    1       -13.925523      -378.9328       1.793761
    4    1        -1.398018       -38.0420       4.272881
    3    2        -8.108532      -220.6444       2.181285
    4    2        -0.123864        -3.3705       4.542208


  Species Sn                  :

  List of atomic basis orbitals and eigenvalues:
    n    l      energy [Ha]    energy [eV]    outer radius [A]
    1    0     -1102.296182    -29995.0052       0.205417
    2    0      -161.927379     -4406.2682       0.552950
    3    0       -31.080946      -845.7556       1.254311
    4    0        -4.904712      -133.4640       2.987868
    5    0        -0.374667       -10.1952       4.527680
    2    1      -145.296107     -3953.7082       0.566636
    3    1       -25.685749      -698.9448       1.349773
    4    1        -3.278700       -89.2180       3.545609
    5    1        -0.121462        -3.3051       4.583370
    3    2       -17.397547      -473.4113       1.544053
    4    2        -0.933635       -25.4055       4.364635


  Species Pb                  :

  List of atomic basis orbitals and eigenvalues:
    n    l      energy [Ha]    energy [eV]    outer radius [A]
    1    0     -3583.275374    -97505.8840       0.114982
    2    0      -591.288386    -16089.7756       0.298366
    3    0      -139.815632     -3804.5769       0.621304
    4    0       -31.498090      -857.1066       1.278055
    5    0        -5.283870      -143.7814       2.934797
    6    0        -0.434182       -11.8147       5.025564
    2    1      -505.944692    -13767.4555       0.317173
    3    1      -115.938523     -3154.8477       0.668590
    4    1       -23.732126      -645.7840       1.426700
    5    1        -3.141456       -85.4834       3.657164
    6    1        -0.120461        -3.2779       5.087378
    3    2       -91.723313     -2495.9183       0.719474
    4    2       -14.773305      -402.0021       1.713844
    5    2        -0.769506       -20.9393       4.844590
    4    3        -4.885932      -132.9530       2.597082


  Species Ru                  :

  List of atomic basis orbitals and eigenvalues:
    n    l      energy [Ha]    energy [eV]    outer radius [A]
    1    0      -826.832094    -22499.2460       0.236300
    2    0      -116.419684     -3167.9408       0.643905
    3    0       -20.416209      -555.5533       1.515196
    4    0        -2.795705       -76.0750       3.836818
    5    0        -0.145018        -3.9461       4.609033
    2    1      -104.230680     -2836.2611       0.659842
    3    1       -16.432227      -447.1436       1.650568
    4    1        -1.694761       -46.1168       4.179611
    3    2       -10.032297      -272.9927       1.982769
    4    2        -0.181771        -4.9462       4.553031

  Assembling full basis from fixed parts.
  | Species Ir :   atomic orbital   1 s accepted.
  | Species Ir :   atomic orbital   2 s accepted.
  | Species Ir :   atomic orbital   3 s accepted.
  | Species Ir :   atomic orbital   4 s accepted.
  | Species Ir :   atomic orbital   5 s accepted.
  | Species Ir :    ionic orbital   6 s accepted.
  | Species Ir :   atomic orbital   6 s accepted.
  | Species Ir :   atomic orbital   2 p accepted.
  | Species Ir :   atomic orbital   3 p accepted.
  | Species Ir :   atomic orbital   4 p accepted.
  | Species Ir :   atomic orbital   5 p accepted.
  | Species Ir :    ionic orbital   6 p accepted.
  | Species Ir :   atomic orbital   3 d accepted.
  | Species Ir :   atomic orbital   4 d accepted.
  | Species Ir :   atomic orbital   5 d accepted.
  | Species Ir :    hydro orbital   3 d accepted.
  | Species Ir :   atomic orbital   4 f accepted.
  | Species Ir :    hydro orbital   4 f accepted.
  | Species O :   atomic orbital   1 s accepted.
  | Species O :    hydro orbital   3 s accepted.
  | Species O :   atomic orbital   2 s accepted.
  | Species O :   atomic orbital   2 p accepted.
  | Species O :    hydro orbital   2 p accepted.
  | Species O :    hydro orbital   3 d accepted.
  | Species Mo :   atomic orbital   1 s accepted.
  | Species Mo :   atomic orbital   2 s accepted.
  | Species Mo :   atomic orbital   3 s accepted.
  | Species Mo :   atomic orbital   4 s accepted.
  | Species Mo :    ionic orbital   5 s accepted.
  | Species Mo :   atomic orbital   5 s accepted.
  | Species Mo :   atomic orbital   2 p accepted.
  | Species Mo :   atomic orbital   3 p accepted.
  | Species Mo :   atomic orbital   4 p accepted.
  | Species Mo :    ionic orbital   5 p accepted.
  | Species Mo :   atomic orbital   3 d accepted.
  | Species Mo :   atomic orbital   4 d accepted.
  | Species Mo :    hydro orbital   3 d accepted.
  | Species Mo :    hydro orbital   4 f accepted.
  | Species Sn :   atomic orbital   1 s accepted.
  | Species Sn :   atomic orbital   2 s accepted.
  | Species Sn :   atomic orbital   3 s accepted.
  | Species Sn :   atomic orbital   4 s accepted.
  | Species Sn :    ionic orbital   5 s accepted.
  | Species Sn :   atomic orbital   5 s accepted.
  | Species Sn :   atomic orbital   2 p accepted.
  | Species Sn :   atomic orbital   3 p accepted.
  | Species Sn :   atomic orbital   4 p accepted.
  | Species Sn :   atomic orbital   5 p accepted.
  | Species Sn :    hydro orbital   2 p accepted.
  | Species Sn :   atomic orbital   3 d accepted.
  | Species Sn :   atomic orbital   4 d accepted.
  | Species Sn :    hydro orbital   3 d accepted.
  | Species Pb :   atomic orbital   1 s accepted.
  | Species Pb :   atomic orbital   2 s accepted.
  | Species Pb :   atomic orbital   3 s accepted.
  | Species Pb :   atomic orbital   4 s accepted.
  | Species Pb :   atomic orbital   5 s accepted.
  | Species Pb :   atomic orbital   6 s accepted.
  | Species Pb :    hydro orbital   3 s accepted.
  | Species Pb :   atomic orbital   2 p accepted.
  | Species Pb :   atomic orbital   3 p accepted.
  | Species Pb :   atomic orbital   4 p accepted.
  | Species Pb :   atomic orbital   5 p accepted.
  | Species Pb :   atomic orbital   6 p accepted.
  | Species Pb :    hydro orbital   3 p accepted.
  | Species Pb :   atomic orbital   3 d accepted.
  | Species Pb :   atomic orbital   4 d accepted.
  | Species Pb :   atomic orbital   5 d accepted.
  | Species Pb :    hydro orbital   3 d accepted.
  | Species Pb :   atomic orbital   4 f accepted.
  | Species Pb :    hydro orbital   4 f accepted.
  | Species Ru :   atomic orbital   1 s accepted.
  | Species Ru :   atomic orbital   2 s accepted.
  | Species Ru :   atomic orbital   3 s accepted.
  | Species Ru :   atomic orbital   4 s accepted.
  | Species Ru :   atomic orbital   5 s accepted.
  | Species Ru :    hydro orbital   3 s accepted.
  | Species Ru :   atomic orbital   2 p accepted.
  | Species Ru :   atomic orbital   3 p accepted.
  | Species Ru :   atomic orbital   4 p accepted.
  | Species Ru :    ionic orbital   5 p accepted.
  | Species Ru :   atomic orbital   3 d accepted.
  | Species Ru :    ionic orbital   4 d accepted.
  | Species Ru :   atomic orbital   4 d accepted.
  | Species Ru :    hydro orbital   4 f accepted.
 
  Basis size parameters after reduction:
  | Total number of radial functions:       85
  | Total number of basis functions :      136
 
  Per-task memory consumption for arrays in subroutine allocate_ext:
  |          32.454000MB.
  Testing on-site integration grid accuracy.
  |  Species  Function  <phi|h_atom|phi> (log., in eV)  <phi|h_atom|phi> (rad., in eV)
           1        1             -83061.2419534561             -83060.9146593249 ***
           1        2             -13553.1843346068             -13553.1781367172
           1        3              -3129.1002550380              -3129.0999359880
           1        4               -664.6878573356               -664.6878340006
           1        5                -97.7332588055                -97.7332565449
           1        6                 -5.6963028729                 -5.6964922576
           1        7                  6.1499427858                  6.1128982145 ***
           1        8             -11752.3102140213             -11752.3102165735
           1        9              -2613.4124465377              -2613.4124424784
           1       10               -496.6492613802               -496.6492559928
           1       11                -54.4715534101                -54.4715521908
           1       12                  0.1705339739                  0.1677771791
           1       13              -2048.5784552198              -2048.5784537876
           1       14               -290.8693877347               -290.8693845728
           1       15                 -7.0096305612                 -7.0097788542
           1       16                  7.7404882038                  7.7243869206
           1       17                -62.2261925601                -62.2261917916
           1       18                 23.2316722621                 23.2316821211
           2       19               -515.0295626295               -515.0294562738
           2       20                 15.1698434419                 15.1699322204
           2       21                -21.6038822678                -21.6039118105
           2       22                 -9.0211123393                 -9.0212703513
           2       23                  8.3047696391                  8.2854840999
           2       24                 45.8428042125                 45.8427461222
           3       25             -20281.5659320675             -20281.5323559148 ***
           3       26              -2810.3291693068              -2810.3286854703
           3       27               -476.3680236302               -476.3680079684
           3       28                -63.9008496011                -63.9008488153
           3       29                 -3.1589031744                 -3.1626118517
           3       30                  6.6219449585                  6.4059388831 ***
           3       31              -2511.5584946714              -2511.5584926613
           3       32               -378.9327641188               -378.9327633055
           3       33                -38.0420009841                -38.0420006865
           3       34                  0.5956589048                  0.5771251364
           3       35               -220.6443822950               -220.6443820003
           3       36                 -3.3734068167                 -3.3762615058
           3       37                  8.2366836575                  8.1872404255 ***
           3       38                 23.6292330546                 23.6292104921
           4       39             -29995.0052367662             -29994.9432809520 ***
           4       40              -4406.2681738074              -4406.2672001102
           4       41               -845.7555735298               -845.7555331291
           4       42               -133.4640018216               -133.4639985926
           4       43                 -9.9399737426                 -9.9398710402
           4       44                  5.0312044759                  4.9655493274 ***
           4       45              -3953.7082207388              -3953.7082177226
           4       46               -698.9447960315               -698.9447929106
           4       47                -89.2179732767                -89.2179718193
           4       48                 -3.3229938135                 -3.3369522253
           4       49                  6.6208687964                  6.4703970054 ***
           4       50               -473.4113411844               -473.4113403321
           4       51                -25.4055088437                -25.4055084979
           4       52                  7.4268946216                  7.4217105710
           5       53             -97505.8839916597             -97505.4610915722 ***
           5       54             -16089.7756224867             -16089.7673698558
           5       55              -3804.5769230374              -3804.5764843087
           5       56               -857.1066466665               -857.1066165521
           5       57               -143.7814146583               -143.7814107259
           5       58                -11.8148645926                -11.8150585698
           5       59                  3.1384536114                  3.1074738951 ***
           5       60             -13767.4555482041             -13767.4555179163
           5       61              -3154.8477157471              -3154.8477089453
           5       62               -645.7840140064               -645.7840104767
           5       63                -85.4833700251                -85.4833680553
           5       64                 -3.2863583968                 -3.2978599646
           5       65                  5.7851278719                  5.6622419767 ***
           5       66              -2495.9183401346              -2495.9183384015
           5       67               -402.0020691689               -402.0020673701
           5       68                -20.9393228216                -20.9393223968
           5       69                  7.1026569115                  7.0986049218
           5       70               -132.9529645464               -132.9529639915
           5       71                 17.8899917474                 17.8898480698
           6       72             -22499.2460382240             -22499.2064578020 ***
           6       73              -3167.9407775581              -3167.9401960280
           6       74               -555.5533265372               -555.5533045164
           6       75                -76.0750042146                -76.0750029624
           6       76                 -3.9662525088                 -3.9849805615
           6       77                  6.6989239523                  6.5058736863 ***
           6       78              -2836.2611216650              -2836.2611206677
           6       79               -447.1436482433               -447.1436457000
           6       80                -46.1167861728                -46.1167856201
           6       81                  0.7901487738                  0.7786876328
           6       82               -272.9926928060               -272.9926919723
           6       83                 -4.7398595543                 -4.7399765873
           6       84                  7.4647124271                  7.4153231768 ***
           6       85                 26.6217869470                 26.6216847247
 * Note: Onsite integrals marked "***" above are less accurate than
 * onsite_accuracy_threshold =    0.03000 eV. Usually, this is harmless.
 * However, one integral did have a negative value. This integral could be important.
 * When in doubt, tighten the "radial" and/or "radial_multiplier" flags to check.

  Preparing densities etc. for the partition functions (integrals / Hartree potential).

  Preparations completed.
  max(cpu_time)          :      0.894 s.
  Wall clock time (cpu1) :      0.895 s.
------------------------------------------------------------
  After prepare_scf [GB]:    634.86

  Initializing index lists of integration centers etc. from given atomic structure:
  Mapping all atomic coordinates to central unit cell.

  Initializing the k-points
  Using symmetry for reducing the k-points
  | k-points reduced from:      512 to      260
  | Number of k-points                             :       260
  The eigenvectors in the calculations are COMPLEX.
  | K-points in task   0:        16
  | K-points in task   1:        17
  | K-points in task   2:        17
  | K-points in task   3:        17
  | K-points in task   4:        17
  | K-points in task   5:        16
  | K-points in task   6:        16
  | K-points in task   7:        16
  | K-points in task   8:        16
  | K-points in task   9:        16
  | K-points in task  10:        16
  | K-points in task  11:        16
  | K-points in task  12:        16
  | K-points in task  13:        16
  | K-points in task  14:        16
  | K-points in task  15:        16
  | Number of basis functions in the Hamiltonian integrals :      2808
  | Number of basis functions in a single unit cell        :       136
  | Number of centers in hartree potential         :      1143
  | Number of centers in hartree multipole         :       708
  | Number of centers in electron density summation:       499
  | Number of centers in basis integrals           :       536
  | Number of centers in integrals                 :       210
  | Number of centers in hamiltonian               :       654
  | Consuming        609 KiB for k_phase.
  | Number of super-cells (origin) [n_cells]                     :         891
  | Number of super-cells (after PM_index) [n_cells]             :         150
  | Number of super-cells in hamiltonian [n_cells_in_hamiltonian]:         150
  | Size of matrix packed + index [n_hamiltonian_matrix_size] :      276605
  After initialize_bc_dependent_lists [GB]:    634.74

------------------------------------------------------------
          Begin self-consistency loop: Initialization.

          Date     :  20260202, Time     :  125449.903
------------------------------------------------------------

  Initializing relaxation algorithms.
  Finished initialization of distributed Hessian storage.
  | Global dimension:        27
  | BLACS block size:         2
  | Number of workers:       14

  Available memory per node after initialize_hartree_non_periodic_ewald [GB]:    634.74
  | Estimated reciprocal-space cutoff momentum G_max:         3.00298540 bohr^-1 .
  | Reciprocal lattice points for long-range Hartree potential:     204
  Available memory per node after initialize_recip_hartree_potential [GB]:    634.74
  Available memory per node after initialize_scalapack [GB]:    634.74
  Available memory per node after aims_elsi_init_scf [GB]:    634.74
  Available memory per node after initialize_fixed_grids [GB]:    634.73
  Partitioning the integration grid into batches with parallel hashing+maxmin method.
  | Number of batches:      512
  | Maximal batch size:      99
  | Minimal batch size:      62
  | Average batch size:      80.570
  | Standard deviation of batch sizes:      11.588

  Integration load balanced across    16 MPI tasks.
  Work distribution over tasks is as follows:
[...]
  However, this system has fractional occupation numbers. Since we use a finite k-point grid,
  this material is metallic within the approximate finite broadening function (occupation_type)
  applied to determine the occupation numbers.

  | Chemical Potential                          :    -5.83891377 eV
  | Note that, for insulating systems, the printed 'chemical potential' value is not uniquely defined.
  | It can be anywhere in the energy gap, as long as it correctly separates occupied and unoccupied states.
  | In systems with a gap, the physically relevant chemical potential is the VBM or HOMO.

  Self-consistency cycle converged.


------------------------------------------------------------
  End self-consistency iteration #     6       :  max(cpu_time)    wall_clock(cpu1)
  | Time for this iteration                     :        7.513 s           7.545 s
  | Charge density & force component update     :        6.828 s           6.858 s
  | Density mixing                              :        0.001 s           0.000 s
  | Hartree multipole update                    :        0.002 s           0.002 s
  | Hartree multipole summation                 :        0.204 s           0.205 s
  | Hartree pot. SCF incomplete forces          :        0.160 s           0.161 s
  | Integration                                 :        0.210 s           0.211 s
  | Solution of K.-S. eqns.                     :        0.106 s           0.108 s
  | Total energy evaluation                     :        0.000 s           0.000 s

  Partial memory accounting:
  | Current value for overall tracked memory usage:
  |   Minimum:       11.846 MB (on task 15)
  |   Maximum:       12.223 MB (on task  4)
  |   Average:       11.959 MB
  | Peak value for overall tracked memory usage:
  |   Minimum:       29.083 MB (on task 14 after allocating d_wave)
  |   Maximum:       29.996 MB (on task 13 after allocating d_wave)
  |   Average:       29.519 MB
  | Largest tracked array allocation so far:
  |   Minimum:        4.956 MB (density_matrix_con on task 14)
  |   Maximum:        5.345 MB (density_matrix_con on task 13)
  |   Average:        5.165 MB
  Note:  These values currently only include a subset of arrays which are explicitly tracked.
  The "true" memory usage will be greater.
------------------------------------------------------------
  Obtaining max. number of non-zero basis functions in each batch .
  Evaluating KS electron density on previously omitted grid points, using the density matrix.
  Evaluating density matrix
  Removing unitary transformations (pure translations, rotations) from forces on atoms.
  Atomic forces before filtering:
  | Net force on center of mass :  -0.920209E-05 -0.874811E-05 -0.140958E-06 eV/A
  Atomic forces after filtering:
  | Net force on center of mass :  -0.435562E-19  0.000000E+00  0.552959E-21 eV/A

  Energy and forces in a compact form:
  | Total energy uncorrected      :         -0.230669169949169E+06 eV
  | Total energy corrected        :         -0.230669172314495E+06 eV  <-- do not rely on this value for anything but (periodic) metals
  | Electronic free energy        :         -0.230669174679820E+06 eV
  Total atomic forces (unitary forces cleaned) [eV/Ang]:
  |    1          0.702039004847106E-04          0.766396285047514E-04         -0.319425772477442E-05
  |    2         -0.551155805641261E-04         -0.694521318464314E-04          0.278828857981925E-05
  |    3         -0.134294817635627E-03          0.111070762658906E-03         -0.328632488543840E-07
  |    4          0.223247771723599E-03          0.234564132183304E-03          0.659687444732186E-06
  |    5          0.122503510316202E-03         -0.117215708989459E-03         -0.454607420310837E-06
  |    6         -0.226544784324758E-03         -0.235606682511070E-03          0.233752369388203E-06

  ------------------------------------ 
  Start decomposition of the XC Energy 
  ------------------------------------ 
  X and C from original XC functional choice 
  Hartree-Fock Energy :          0.000000000 Ha              0.000000000 eV
  X Energy            :       -277.068517378 Ha          -7539.417959211 eV
  C Energy            :         -5.496026880 Ha           -149.554500646 eV
  XC Energy w/o HF    :       -282.564544257 Ha          -7688.972459857 eV
  Total XC Energy     :       -282.564544257 Ha          -7688.972459857 eV
  ------------------------------------ 
  LDA X and C from self-consistent density 
  X Energy LDA        :       -262.252986473 Ha          -7136.266851184 eV
  C Energy LDA        :        -10.081538267 Ha           -274.332614138 eV
  ------------------------------------ 
  End decomposition of the XC Energy 
  ------------------------------------ 

------------------------------------------------------------
  Relaxation / MD: End force evaluation.       :  max(cpu_time)    wall_clock(cpu1)
  | Time for this force evaluation              :       19.336 s          19.436 s

------------------------------------------------------------
  Geometry optimization: Attempting to predict improved coordinates.

  +-------------------------------------------------------------------+
  | Generalized derivatives on lattice vectors [eV/A]                 |
  +-------------------------------------------------------------------+
  |lattice_vector      -0.00272270       0.00003173      -0.00000002  |
  |lattice_vector       0.00003173      -0.00277684       0.00000005  |
  |lattice_vector      -0.00000003       0.00000009       0.03298944  |
  +-------------------------------------------------------------------+
  | Forces on lattice vectors cleaned from atomic contributions [eV/A]|
  +-------------------------------------------------------------------+
  |lattice_vector       0.00272270      -0.00003173       0.00000002  |
  |lattice_vector      -0.00003173       0.00277684      -0.00000005  |
  |lattice_vector       0.00000003      -0.00000009      -0.03298944  |
  +-------------------------------------------------------------------+
  Removing unitary transformations (pure translations, rotations) from forces on atoms.
  Atomic forces before filtering:
  | Net force on center of mass :  -0.435562E-19  0.000000E+00  0.552959E-21 eV/A
  Atomic forces after filtering:
  | Net force on center of mass :  -0.435562E-19  0.000000E+00  0.212677E-21 eV/A
  Net remaining forces (excluding translations, rotations) in present geometry:
  || Forces on atoms   || =   0.235607E-03 eV/A.
  || Forces on lattice || =   0.329894E-01 eV/A^3.
  Maximum force component is  0.329894E-01 eV/A.
  Present geometry is converged.

------------------------------------------------------------
  Final atomic structure:
                         x [A]             y [A]             z [A]
  lattice_vector         4.94160395        0.00000251       -0.00000000
  lattice_vector         0.00000251        4.94160614        0.00000001
  lattice_vector        -0.00000000        0.00000004        2.74862053

            atom         2.47080127        2.47080250       -0.00000008  Mo
            atom         0.00000080        0.00000133        1.37430970  Mo
            atom         3.86733431        1.07427141        0.00000008  O
            atom         3.54507108        3.54506759        1.37431045  O
            atom         1.07427350        3.86733835        0.00000015  O
            atom         1.39653518        1.39654049        1.37431051  O

  Fractional coordinates:
                         L1                L2                L3
       atom_frac         0.49999960        0.49999963       -0.00000003  Mo
       atom_frac         0.00000016        0.00000027        0.49999980  Mo
       atom_frac         0.78260698        0.21739277        0.00000003  O
       atom_frac         0.71739243        0.71739141        0.50000007  O
       atom_frac         0.21739329        0.78260746        0.00000005  O
       atom_frac         0.28260753        0.28260847        0.50000009  O
------------------------------------------------------------
  Performing Hirshfeld analysis of fragment charges and moments.
  ----------------------------------------------------------------------
  | Atom     1: Mo
  |   Hirshfeld charge        :      0.57159054
  |   Free atom volume        :    149.14533417
  |   Hirshfeld volume        :    142.17353627
  |   Hirshfeld dipole vector :     -0.00000048      -0.00000061       0.00000003
  |   Hirshfeld dipole moment :      0.00000078
  |   Hirshfeld second moments:      0.24956923      -0.01199914       0.00000000
  |                                 -0.01199914       0.24956957      -0.00000001
  |                                  0.00000000      -0.00000001       0.14568564
  ----------------------------------------------------------------------
  | Atom     2: Mo
  |   Hirshfeld charge        :      0.57158881
  |   Free atom volume        :    149.14533417
  |   Hirshfeld volume        :    142.17353567
  |   Hirshfeld dipole vector :      0.00000029       0.00000034       0.00000006
  |   Hirshfeld dipole moment :      0.00000045
  |   Hirshfeld second moments:      0.24957046       0.01199895      -0.00000000
  |                                  0.01199895       0.24957009      -0.00000001
  |                                 -0.00000000      -0.00000001       0.14568318
  ----------------------------------------------------------------------
  | Atom     3: O
  |   Hirshfeld charge        :     -0.28594762
  |   Free atom volume        :     23.60491416
  |   Hirshfeld volume        :     23.22570365
  |   Hirshfeld dipole vector :     -0.00497345       0.00497357      -0.00000002
  |   Hirshfeld dipole moment :      0.00703360
  |   Hirshfeld second moments:     -0.01421417       0.01009995       0.00000000
  |                                  0.01009995      -0.01421425      -0.00000000
  |                                  0.00000000      -0.00000000      -0.01464981
  ----------------------------------------------------------------------
  | Atom     4: O
  |   Hirshfeld charge        :     -0.28594817
  |   Free atom volume        :     23.60491416
  |   Hirshfeld volume        :     23.22571236
  |   Hirshfeld dipole vector :      0.00497376       0.00497351      -0.00000001
  |   Hirshfeld dipole moment :      0.00703378
  |   Hirshfeld second moments:     -0.01421454      -0.01009979      -0.00000000
  |                                 -0.01009979      -0.01421452       0.00000000
  |                                 -0.00000000       0.00000000      -0.01465038
  ----------------------------------------------------------------------
  | Atom     5: O
  |   Hirshfeld charge        :     -0.28594767
  |   Free atom volume        :     23.60491416
  |   Hirshfeld volume        :     23.22570471
  |   Hirshfeld dipole vector :      0.00497352      -0.00497340      -0.00000002
  |   Hirshfeld dipole moment :      0.00703353
  |   Hirshfeld second moments:     -0.01421429       0.01009994      -0.00000000
  |                                  0.01009994      -0.01421421       0.00000000
  |                                 -0.00000000       0.00000000      -0.01464986
  ----------------------------------------------------------------------
  | Atom     6: O
  |   Hirshfeld charge        :     -0.28594754
  |   Free atom volume        :     23.60491416
  |   Hirshfeld volume        :     23.22569880
  |   Hirshfeld dipole vector :     -0.00497386      -0.00497364      -0.00000001
  |   Hirshfeld dipole moment :      0.00703394
  |   Hirshfeld second moments:     -0.01421399      -0.01009997       0.00000000
  |                                 -0.01009997      -0.01421399       0.00000000
  |                                  0.00000000       0.00000000      -0.01464977
  ----------------------------------------------------------------------


------------------------------------------------------------------------------
  Final output of selected total energy values:

  The following output summarizes some interesting total energy values
  at the end of a run (AFTER all relaxation, molecular dynamics, etc.).

  | Total energy of the DFT / Hartree-Fock s.c.f. calculation      :        -230669.169949169 eV
  | Final zero-broadening corrected energy (caution - metals only) :        -230669.172314495 eV
  | For reference only, the value of 1 Hartree used in FHI-aims is :             27.211384500 eV
  | For reference only, the overall average (free atom contribution
  | + realspace contribution) of the electrostatic potential after
  | s.c.f. convergence is                                          :            -19.199962574 eV

  Before relying on these values, please be sure to understand exactly which
  total energy value is referred to by a given number. Different objects may
  all carry the same name 'total energy'. Definitions:

  Total energy of the DFT / Hartree-Fock s.c.f. calculation:
  | Note that this energy does not include ANY quantities calculated after the
  | s.c.f. cycle, in particular not ANY RPA, MP2, etc. many-body perturbation terms.

  Final zero-broadening corrected energy:
  | For metallic systems only, a broadening of the occupation numbers at the Fermi
  | level can be extrapolated back to zero broadening by an electron-gas inspired
  | formula. For all systems that are not real metals, this value can be
  | meaningless and should be avoided.

------------------------------------------------------------------------------
  Methods described in the following list of references were used in this FHI-aims run.
  If you publish the results, please make sure to cite these reference if they apply.
  FHI-aims is an academic code, and for our developers (often, Ph.D. students
  and postdocs), scientific credit in the community is essential.
  Thank you for helping us!

  For any use of FHI-aims, please cite:

    Volker Blum, Ralf Gehrke, Felix Hanke, Paula Havu, Ville Havu,
    Xinguo Ren, Karsten Reuter, and Matthias Scheffler
    'Ab initio molecular simulations with numeric atom-centered orbitals'
    Computer Physics Communications 180, 2175-2196 (2009)
    http://doi.org/10.1016/j.cpc.2009.06.022


  For the analytical stress tensor used in your run, please cite:

    Franz Knuth, Christian Carbogno, Viktor Atalla, Volker Blum, Matthias Scheffler
    'All-electron formalism for total energy strain derivatives and
    stress tensor components for numeric atom-centered orbitals'
    Computer Physics Communications 190, 33-50 (2015).
    http://doi.org/10.1016/j.cpc.2015.01.003


  The provided symmetry information was generated with SPGlib:

    Atsushi Togo, Yusuke Seto, Dimitar Pashov
    SPGlib 1.7.3 obtained from http://spglib.sourceforge.net
    Licence: New BSD license
    Copyright (C) 2008 Atsushi Togo


  The ELSI infrastructure was used in your run to solve the Kohn-Sham electronic structure.
  Please check out http://elsi-interchange.org to learn more.
  If scalability is important for your project, please acknowledge ELSI by citing:

    V. W-z. Yu, F. Corsetti, A. Garcia, W. P. Huhn, M. Jacquelin, W. Jia,
    B. Lange, L. Lin, J. Lu, W. Mi, A. Seifitokaldani, A. Vazquez-Mayagoitia,
    C. Yang, H. Yang, and V. Blum
    'ELSI: A unified software interface for Kohn-Sham electronic structure solvers'
    Computer Physics Communications 222, 267-285 (2018).
    http://doi.org/10.1016/j.cpc.2017.09.007


  For the real-space grid partitioning and parallelization used in this calculation, please cite:

    Ville Havu, Volker Blum, Paula Havu, and Matthias Scheffler,
    'Efficient O(N) integration for all-electron electronic structure calculation'
    'using numerically tabulated basis functions'
    Journal of Computational Physics 228, 8367-8379 (2009).
    http://doi.org/10.1016/j.jcp.2009.08.008


  The high-level electronic structure method used in your calculation
  employed our efficient localized resolution of identity for the Coulomb operator.
  Some calculations, especially large-scale hybrid density functional theory,
  are only possible thanks to this development. For this feature, please cite:

    Arvid Ihrig, Juergen Wieferink, Igor Ying Zhang, Matti Ropo, Xinguo Ren,
    Patrick Rinke, Matthias Scheffler, and Volker Blum,
    'Accurate localized resolution of identity approach for linear-scaling
    hybrid density functionals and for many-body perturbation theory'
    New Journal of Physics 117, 093020 (2015).
    http://doi.org/10.1088/1367-2630/17/9/093020

  Of course, there are many other important community references, e.g., those cited in the
  above references. Our list is limited to references that describe implementations in the
  FHI-aims code. The reason is purely practical (length of this list) - please credit others as well.

 * A warning was issued further up regarding the accuracy of onsite integrals.
   An integral with a negative eigenvalue was among the flagged integrals.
   In most standard situations, this warning is probably harmless.
   If needed, this can be verified by adjusting the radial_multiplier flag.

------------------------------------------------------------
          Leaving FHI-aims.
          Date     :  20260202, Time     :  125722.901

          Computational steps:
          | Number of self-consistency cycles          :           87
          | Number of SCF (re)initializations          :            8
          | Number of relaxation steps                 :            7

          Detailed time accounting                     :  max(cpu_time)    wall_clock(cpu1)
          | Total time                                  :      153.196 s         153.986 s
          | Preparation time                            :        0.894 s           0.895 s
          | Boundary condition initalization            :        0.288 s           0.295 s
          | Grid partitioning                           :        0.118 s           0.119 s
          | Preloading free-atom quantities on grid     :        0.861 s           0.871 s
          | Free-atom superposition energy              :        0.096 s           0.095 s
          | Total time for integrations                 :       21.253 s          21.367 s
          | Total time for solution of K.-S. equations  :        9.774 s           9.835 s
          | Total time for EV reorthonormalization      :        0.140 s           0.118 s
          | Total time for density & force components   :      109.002 s         109.498 s
          | Total time for mixing                       :        0.043 s           0.036 s
          | Total time for Hartree multipole update     :        0.164 s           0.179 s
          | Total time for Hartree multipole sum        :        6.099 s           6.131 s
          | Total time for total energy evaluation      :        0.038 s           0.036 s
          | Total time NSC force correction             :        3.062 s           3.075 s
          | Total time for scaled ZORA corrections      :        0.000 s           0.000 s

          Partial memory accounting:
          | Residual value for overall tracked memory usage across tasks:     0.000000 MB (should be 0.000000 MB)
          | Peak values for overall tracked memory usage:
          |   Minimum:       29.083 MB (on task 14 after allocating d_wave)
          |   Maximum:       29.996 MB (on task 13 after allocating d_wave)
          |   Average:       29.519 MB
          | Largest tracked array allocation:
          |   Minimum:        4.956 MB (density_matrix_con on task 14)
          |   Maximum:        5.345 MB (density_matrix_con on task 13)
          |   Average:        5.165 MB
          Note:  These values currently only include a subset of arrays which are explicitly tracked.
          The "true" memory usage will be greater.

          Have a nice day.
------------------------------------------------------------
