------------------------------------------------------------
          Invoking FHI-aims ...

          When using FHI-aims, please cite the following reference:

            Volker Blum, Ralf Gehrke, Felix Hanke, Paula Havu,
            Ville Havu, Xinguo Ren, Karsten Reuter, and Matthias Scheffler,
            'Ab Initio Molecular Simulations with Numeric Atom-Centered Orbitals',
            Computer Physics Communications 180, 2175-2196 (2009)

          In addition, many other developments in FHI-aims are likely important for
          your particular application. If so, please cite them. A partial list of references
          is written at the end of this file. Thank you for giving credit to the authors
          of these developments.

          For general information about FHI-aims please find us at

            https://fhi-aims.org

          Online tutorials can be found at

            https://fhi-aims-club.gitlab.io/tutorials/tutorials-overview/

          For any questions about FHI-aims, please visit our slack channel at

            https://fhi-aims.slack.com

          and our main development and support site at

            https://aims-git.rz-berlin.mpg.de .

          The latter site, in particular, has a wiki to collect information, as well
          as an issue tracker to log discussions, suggest improvements, and report issues
          or bugs. https://aims-git.rz-berlin.mpg.de is also the main development site
          of the project and all new and updated code versions can be obtained there.
          Please send an email to aims-coordinators@fhi-berlin.mpg.de and we will add
          you to these sites. They are for you and everyone is welcome there.

------------------------------------------------------------



  Date     :  20260219, Time     :  153008.264
  Time zero on CPU 1             :   0.174550200000000E+01  s.
  Internal wall clock time zero  :           540747008.264  s.

  FHI-aims created a unique identifier for this run for later identification
  aims_uuid : 8425E582-D5AC-49CC-AF75-8F24B1AF2FDA

  Build configuration of the current instance of FHI-aims
  -------------------------------------------------------
  FHI-aims version      : 231208
  Commit number         : ce33249f0
  CMake host system     : Linux-4.18.0-477.21.1.el8_8.x86_64
  CMake version         : 3.20.2
  Fortran compiler      : /opt/intel/oneapi/mpi/2021.8.0/bin/mpiifort (Intel) version 2021.3.0.20210609
  Fortran compiler flags: -O3 -ip -fp-model precise
  C compiler            : /opt/intel/oneapi/compiler/2021.3.0/linux/bin/intel64/icc (Intel) version 2021.3.0.20210609
  C compiler flags      : -O3 -ip -fp-model precise -std=gnu99
  C++ compiler          : /opt/intel/oneapi/compiler/2021.3.0/linux/bin/intel64/icpc (Intel) version 2021.3.0.20210609
  C++ compiler flags    : -O3 -ip -fp-model precise
  HIP compiler          :
  HIP compiler flags    :
  HIP GPU arch          :
  Using MPI
  Using ScaLAPACK
  Using LibXC
  Using i-PI
  Using RLSY
  Linking against: /opt/intel/oneapi/mkl/2021.3.0/lib/intel64/libmkl_intel_lp64.so
                   /opt/intel/oneapi/mkl/2021.3.0/lib/intel64/libmkl_sequential.so
                   /opt/intel/oneapi/mkl/2021.3.0/lib/intel64/libmkl_core.so
                   /opt/intel/oneapi/mkl/2021.3.0/lib/intel64/libmkl_blacs_intelmpi_lp64.so
                   /opt/intel/oneapi/mkl/2021.3.0/lib/intel64/libmkl_scalapack_lp64.so

  Using       16 parallel tasks.
  Task        0 on host g9nodeag1 reporting.
  Task        1 on host g9nodeag1 reporting.
  Task        2 on host g9nodeag1 reporting.
  Task        3 on host g9nodeag1 reporting.
  Task        4 on host g9nodeag1 reporting.
  Task        5 on host g9nodeag1 reporting.
  Task        6 on host g9nodeag1 reporting.
  Task        7 on host g9nodeag1 reporting.
  Task        8 on host g9nodeag1 reporting.
  Task        9 on host g9nodeag1 reporting.
  Task       10 on host g9nodeag1 reporting.
  Task       11 on host g9nodeag1 reporting.
  Task       12 on host g9nodeag1 reporting.
  Task       13 on host g9nodeag1 reporting.
  Task       14 on host g9nodeag1 reporting.
  Task       15 on host g9nodeag1 reporting.

  Memory overcommitment is allowed on your operating system.

  Obtaining array dimensions for all initial allocations:
  
  -----------------------------------------------------------------------
  Parsing control.in (first pass over file, find array dimensions only).
  The contents of control.in will be repeated verbatim below
  unless switched off by setting 'verbatim_writeout .false.' .
  in the first line of control.in .
  -----------------------------------------------------------------------
  
   #===============================================================================
    # FHI-aims file: ./control.in
    # Created using the Atomic Simulation Environment (ASE)
    # Thu Apr 20 02:33:34 2023
    #===============================================================================
    xc                                 pbe
    charge                             0.
    spin                               collinear
    default_initial_moment             0
    relativistic                       atomic_zora scalar
    charge                             0.
    occupation_type                    gaussian 0.025
    mixer                              pulay
    n_max_pulay                        10
    charge_mix_param                   0.1
    sc_accuracy_rho                    1E-2
    sc_accuracy_eev                    5E-2
    sc_accuracy_etot                   1E-3
    sc_accuracy_forces                 1E-2
    sc_iter_limit                      2000
    relax_geometry                     bfgs 5.e-2
    relax_unit_cell                    full
    RI_method                          lvl_fast
    k_grid                             4 4 4
    output                             hirshfeld
  #===============================================================================
  
  ################################################################################
  #
  #  FHI-aims code project
  #  VB, Fritz-Haber Institut, 2009
  #
  #  Suggested "light" defaults for Pb atom (to be pasted into control.in file)
  #  Be sure to double-check any results obtained with these settings for post-processing,
  #  e.g., with the "tight" defaults and larger basis sets.
  #
  #
  ################################################################################
    species        Pb
  #     global species definitions
      nucleus             82
      mass                207.2
  #
      l_hartree           4
  #
      cut_pot             4.0  1.5  1.0
      basis_dep_cutoff    1e-4
  #
      radial_base         74 5.5
      radial_multiplier   1
      angular_grids specified
        division   0.1064  110
        division   0.1579  194
        division   0.2150  302
  #      division   1.0164  434
  #      division   1.1544  590
  #      division   1.1970  770
  #      division   7.7779  974
  #      outer_grid  974
        outer_grid 302
  ################################################################################
  #
  #  Definition of "minimal" basis
  #
  ################################################################################
  #     valence basis states
      valence      6  s   2.
      valence      6  p   2.
      valence      5  d  10.
      valence      4  f  14.
  #     ion occupancy
      ion_occ     6  s    1.
      ion_occ     6  p    1.
      ion_occ     5  d   10.
      ion_occ     4  f   14.
  ################################################################################
  #
  #  Suggested additional basis functions. For production calculations,
  #  uncomment them one after another (the most important basis functions are
  #  listed first).
  #
  #  Constructed for dimers: 2.225, 2.50, 2.88, 3.625, 4.50
  #
  ################################################################################
  #  "First tier" - max. impr. -156.54 meV, min. impr. -14.49 meV
       hydro 3 p 2.3
       hydro 4 f 7.6
       hydro 3 d 3.5
  #     hydro 5 g 9.8
       hydro 3 s 3.2
  #  "Second tier" - max. impr. -4.38  meV, min. impr. -0.30 meV
  #     hydro 6 h 12.8
  #     hydro 3 d 2.4
  #     hydro 5 f 7.2
  #     hydro 5 f 14.8
  #     hydro 4 p 5.4
  #     ionic 6 s auto
  #  "Third tier" - max. impr. -0.86 meV, min. impr. -0.16 meV
  #     hydro 5 p 14.4
  #     hydro 5 g 8.2
  #     hydro 4 d 4.6
  #     hydro 6 h 12.4
  #     hydro 6 d 12.4
  #     hydro 4 s 4
  #     hydro 5 g 32.8
  #     hydro 5 f 9.4
  #  Further functions: -0.10 meV and below
  #     hydro 5 f 17.6
  #     hydro 7 p 19.6
  ################################################################################
  #
  #  FHI-aims code project
  #  VB, Fritz-Haber Institut, 2009
  #
  #  Suggested "light" defaults for O atom (to be pasted into control.in file)
  #  Be sure to double-check any results obtained with these settings for post-processing,
  #  e.g., with the "tight" defaults and larger basis sets.
  #
  ################################################################################
    species        O
  #     global species definitions
      nucleus             8
      mass                15.9994
  #
      l_hartree           4
  #
      cut_pot             3.5  1.5  1.0
      basis_dep_cutoff    1e-4
  #
      radial_base         36 5.0
      radial_multiplier   1
       angular_grids specified
        division   0.2659   50
        division   0.4451  110
        division   0.6052  194
        division   0.7543  302
  #      division   0.8014  434
  #      division   0.8507  590
  #      division   0.8762  770
  #      division   0.9023  974
  #      division   1.2339 1202
  #      outer_grid 974
        outer_grid 302
  ################################################################################
  #
  #  Definition of "minimal" basis
  #
  ################################################################################
  #     valence basis states
      valence      2  s   2.
      valence      2  p   4.
  #     ion occupancy
      ion_occ      2  s   1.
      ion_occ      2  p   3.
  ################################################################################
  #
  #  Suggested additional basis functions. For production calculations,
  #  uncomment them one after another (the most important basis functions are
  #  listed first).
  #
  #  Constructed for dimers: 1.0 A, 1.208 A, 1.5 A, 2.0 A, 3.0 A
  #
  ################################################################################
  #  "First tier" - improvements: -699.05 meV to -159.38 meV
       hydro 2 p 1.8
       hydro 3 d 7.6
       hydro 3 s 6.4
  #  "Second tier" - improvements: -49.91 meV to -5.39 meV
  #     hydro 4 f 11.6
  #     hydro 3 p 6.2
  #     hydro 3 d 5.6
  #     hydro 5 g 17.6
  #     hydro 1 s 0.75
  #  "Third tier" - improvements: -2.83 meV to -0.50 meV
  #     ionic 2 p auto
  #     hydro 4 f 10.8
  #     hydro 4 d 4.7
  #     hydro 2 s 6.8
  #  "Fourth tier" - improvements: -0.40 meV to -0.12 meV
  #     hydro 3 p 5
  #     hydro 3 s 3.3
  #     hydro 5 g 15.6
  #     hydro 4 f 17.6
  #     hydro 4 d 14
  # Further basis functions - -0.08 meV and below
  #     hydro 3 s 2.1
  #     hydro 4 d 11.6
  #     hydro 3 p 16
  #     hydro 2 s 17.2
  ################################################################################
  #
  #  FHI-aims code project
  #  VB, Fritz-Haber Institut, 2009
  #
  #  Suggested "light" defaults for Pd atom (to be pasted into control.in file)
  #  Be sure to double-check any results obtained with these settings for post-processing,
  #  e.g., with the "tight" defaults and larger basis sets.
  #
  ################################################################################
    species        Pd
  #     global species definitions
      nucleus             46
      mass                106.42
  #
      l_hartree           4
  #
      cut_pot             3.5  1.5  1.0
      basis_dep_cutoff    1e-4
  #
      radial_base         62 5.0
      radial_multiplier   1
      angular_grids specified
        division   0.5211   50
        division   0.9161  110
        division   1.2296  194
        division   1.5678  302
  #      division   1.9785  434
  #      division   2.0474  590
  #      division   2.1195  770
  #      division   2.1568  974
  #      division   2.7392 1202
  #       outer_grid  974
         outer_grid  302
  ################################################################################
  #
  #  Definition of "minimal" basis
  #
  ################################################################################
  #     valence basis states
      valence      5  s   1.
      valence      4  p   6.
      valence      4  d   9.
  #     ion occupancy
      ion_occ     5  s   0.
      ion_occ     4  p   6.
      ion_occ     4  d   8.
  ################################################################################
  #
  #  Suggested additional basis functions. For production calculations,
  #  uncomment them one after another (the most important basis functions are
  #  listed first).
  #
  #  Constructed for dimers: 2.0 A, 2.275 A, 2.75 A, 3.75 A
  #
  ################################################################################
  #  "First tier" - max. impr. -120.76  meV, min. impr. -5.71 meV
       ionic 5 p auto
       hydro 4 f 8
  #     hydro 5 g 10
       hydro 3 s 2.6
       hydro 3 d 2.5
  #  "Second tier" - max. impr. -5.00  meV, min. impr. -0.62 meV
  #     hydro 5 f 17.2
  #     hydro 6 h 14
  #     hydro 4 d 4
  #     hydro 5 f 7.6
  #     hydro 3 p 3.3
  #     hydro 4 s 9.4
  #  "Third tier" - max. impr. -0.54  meV, min. impr. -0.14 meV
  #     hydro 4 f 20
  #     hydro 5 g 12.8
  #     hydro 5 d 9.8
  #     hydro 6 h 15.2
  #     hydro 5 s 10
  #     hydro 6 p 9.8
  #  "Fourth tier" - max. impr. -0.15  meV, min. impr. -0.05 meV
  #     hydro 5 f 9.2
  #     hydro 2 s 5.6
  #     hydro 5 f 43.2
  #     hydro 5 d 13.2
  #     hydro 5 g 14
  #     hydro 4 p 4.7
  ################################################################################
  #
  #  FHI-aims code project
  #  VB, Fritz-Haber Institut, 2009
  #
  #  Suggested "light" defaults for Ru atom (to be pasted into control.in file)
  #  Be sure to double-check any results obtained with these settings for post-processing,
  #  e.g., with the "tight" defaults and larger basis sets.
  #
  ################################################################################
    species        Ru
  #     global species definitions
      nucleus             44
      mass                101.07
  #
      l_hartree           4
  #
      cut_pot             3.5  1.5  1.0
      basis_dep_cutoff    1e-4
  #
      radial_base         60 5.0
      radial_multiplier   1
      angular_grids specified
        division   0.4743   50
        division   0.8754  110
        division   1.1882  194
        division   1.6059  302
  #      division   1.8727  434
  #      division   1.9389  590
  #      division   2.0082  770
  #      division   2.0439  974
  #      division   2.6509 1202
  #      outer_grid   974
        outer_grid   302
  ################################################################################
  #
  #  Definition of "minimal" basis
  #
  ################################################################################
  #     valence basis states
      valence      5  s   1.
      valence      4  p   6.
      valence      4  d   7.
  #     ion occupancy
      ion_occ     5  s   0.
      ion_occ     4  p   6.
      ion_occ     4  d   6.
  ################################################################################
  #
  #  Suggested additional basis functions. For production calculations,
  #  uncomment them one after another (the most important basis functions are
  #  listed first).
  #
  #  Constructed for dimers: 1.725 A, 1.925 A, 2.375 A, 3.00 A, 4.00 A
  #
  ################################################################################
  #  "First tier"  - max. impr. -429.72  meV, min. impr. -24.83 meV
       hydro 4 f 8.8
       ionic 4 d auto
       ionic 5 p auto
  #     hydro 5 g 12.4
       hydro 3 s 2.4
  #  "Second tier" - max. impr. -18.57  meV, min. impr. -0.96 meV
  #     hydro 4 f 20
  #     hydro 6 h 16.8
  #     hydro 5 f 8.6
  #     hydro 5 g 8
  #     hydro 4 d 8
  #     hydro 4 p 5.4
  #     hydro 5 s 8.8
  #  "Third tier"  - max. impr. -1.17  meV, min. impr. -0.22 meV
  #     hydro 6 h 12.4
  #     hydro 5 f 38.4
  #     hydro 3 d 2.6
  #     hydro 5 p 10.4
  #     hydro 4 s 3.7
  #  "Fourth tier"  - max. impr. -0.29  meV, min. impr. -0.11 meV
  #     hydro 5 d 13.6
  #     hydro 5 f 14
  #     hydro 5 g 11.2
  #     hydro 2 p 1.7
  #     hydro 4 s 5.6
  ################################################################################
  #
  #  FHI-aims code project
  #  VB, Fritz-Haber Institut, 2009
  #
  #  Suggested "light" defaults for V atom (to be pasted into control.in file)
  #  Be sure to double-check any results obtained with these settings for post-processing,
  #  e.g., with the "tight" defaults and larger basis sets.
  #
  ################################################################################
    species        V
  #     global species definitions
      nucleus             23
      mass                50.9415
  #
      l_hartree           4
  #
      cut_pot             3.5          1.5  1.0
      basis_dep_cutoff    1e-4
  #
      radial_base         49 5.0
      radial_multiplier   1
      angular_grids       specified
        division   0.4553   50
        division   0.8707  110
        division   1.1666  194
        division   1.3737  302
  #      division   1.5524  434
  #      division   1.8303  590
  #      division   2.0330  770
  #      division   2.0767  974
  #      division   2.5907 1202
  #      outer_grid  974
        outer_grid  302
  ################################################################################
  #
  #  Definition of "minimal" basis
  #
  ################################################################################
  #     valence basis states
      valence      4  s   2.
      valence      3  p   6.
      valence      3  d   3.
  #     ion occupancy
      ion_occ      4  s   1.
      ion_occ      3  p   6.
      ion_occ      3  d   2.
  ################################################################################
  #
  #  Suggested additional basis functions. For production calculations,
  #  uncomment them one after another (the most important basis functions are
  #  listed first).
  #
  #  Constructed for dimers: 1.45 A, 1.65 A, 2.25 A, 3.00 A, 4.00 A
  #
  ################################################################################
  #  "First tier" - improvements: -573.19 meV to -17.48 meV
       hydro 4 f 9
       hydro 3 d 3
       ionic 4 p auto
  #     hydro 5 g 12.8
       ionic 4 s auto
  #  "Second tier" - improvements: -21.58 meV to -1.18 meV
  #     hydro 3 d 5.4
  #     hydro 5 f 11.2
  #     hydro 6 h 18.4
  #     hydro 4 d 7
  #     hydro 4 f 11.2
  #     hydro 4 p 5.6
  #     hydro 5 g 14
  #     hydro 1 s 0.6
  #  "Third tier" - improvements: -0.56 meV to -0.32 meV
  #     hydro 3 d 8.8
  #     hydro 4 p 7.8
  #     hydro 6 h 18.8
  #     hydro 4 f 24.8
  #     hydro 4 s 4.0
  #  "Fourth tier" - improvements: -0.30 meV to -0.09 meV
  #     hydro 5 p 12
  #     hydro 5 g 15.2
  #     hydro 5 f 8
  #     hydro 5 p 6.4
  #     hydro 4 d 5.2
  #     hydro 5 s 7.8
  #  Further functions - impr. -0.09 meV and below
  #     hydro 3 s 12
  #     hydro 6 h 20
  #     hydro 5 g 7
  ################################################################################
  #
  #  FHI-aims code project
  #  VB, Fritz-Haber Institut, 2009
  #
  #  Suggested "light" defaults for Sn atom (to be pasted into control.in file)
  #  Be sure to double-check any results obtained with these settings for post-processing,
  #  e.g., with the "tight" defaults and larger basis sets.
  #
  ################################################################################
    species        Sn
  #     global species definitions
      nucleus             50
      mass                118.710
  #
      l_hartree           4
  #
      cut_pot             3.5  1.5  1.0
      basis_dep_cutoff    1e-4
  #
      radial_base         63 5.0
      radial_multiplier   1
      angular_grids specified
        division   0.1666  110
        division   0.9058  302
  #      division   0.9669  434
  #      division   1.0315  590
  #      division   1.0999  770
  #      division   3.0459  974
  #      outer_grid  974
        outer_grid  302
  ################################################################################
  #
  #  Definition of "minimal" basis
  #
  ################################################################################
  #     valence basis states
      valence      5  s   2.
      valence      5  p   2.
      valence      4  d  10.
  #     ion occupancy
      ion_occ     5  s   1.
      ion_occ     5  p   1.
      ion_occ     4  d  10.
  ################################################################################
  #
  #  Suggested additional basis functions. For production calculations,
  #  uncomment them one after another (the most important basis functions are
  #  listed first).
  #
  #  Constructed for dimers: 2.10 A, 2.40 A, 3.75 A, 3.50 A, 4.50 A
  #
  ################################################################################
  #  "First tier" - max. impr. -189.53  meV, min. impr. -22.71 meV
       hydro 2 p 1.3
       hydro 3 d 3.7
  #     hydro 4 f 7.4
       ionic 5 s auto
  #  "Second tier" - max. impr. -15.73 meV, min. impr. -0.95 meV
  #     hydro 5 g 10.4
  #     hydro 4 p 6
  #     hydro 4 f 20
  #     hydro 3 d 4.3
  #     hydro 6 h 14.4
  #     hydro 4 f 5.6
  #     hydro 3 s 2.4
  #  "Third tier" - max. impr. -0.66 meV, min. impr. -0.09 meV
  #     hydro 5 g 9.2
  #     hydro 3 p 2.6
  #     hydro 3 d 7.2
  #     hydro 6 h 12.4
  #     hydro 5 f 38
  #     hydro 1 s 0.55
  #  "Fourth tier" - max. impr. -0.13 meV, min. impr. -0.04 meV
  #     hydro 4 p 8.4
  #     hydro 4 d 8
  #     hydro 6 p 2.1
  #     hydro 5 f 8.6
  #     hydro 1 s 4.2
  ################################################################################
  #
  #  FHI-aims code project
  #  VB, Fritz-Haber Institut, 2009
  #
  #  Suggested "light" defaults for Pt atom (to be pasted into control.in file)
  #  Be sure to double-check any results obtained with these settings for post-processing,
  #  e.g., with the "tight" defaults and larger basis sets.
  #
  ################################################################################
    species        Pt
  #     global species definitions
      nucleus             78
      mass                195.084
  #
      l_hartree           4
  #
      cut_pot             3.5  1.5  1.0
      basis_dep_cutoff    1e-4
  #
      radial_base         72 5.0
      radial_multiplier   1
      angular_grids specified
        division   0.4222   50
        division   0.9557  110
        division   1.2477  194
        division   1.5393  302
  #      division   1.9382  434
  #      division   2.0887  590
  #      division   2.1534  770
  #      division   2.2208  974
  #      division   2.6985 1202
  #      outer_grid    974
        outer_grid    302
  ################################################################################
  #
  #  Definition of "minimal" basis
  #
  ################################################################################
  #     valence basis states
      valence      6  s   1.
      valence      5  p   6.
      valence      5  d   9.
      valence      4  f  14.
  #     ion occupancy
      ion_occ     6  s   0.
      ion_occ     5  p   6.
      ion_occ     5  d   8.
      ion_occ     4  f   14.
  ################################################################################
  #
  #  Suggested additional basis functions. For production calculations,
  #  uncomment them one after another (the most important basis functions are
  #  listed first).
  #
  #  Constructed for dimers: 2.00, 2.275, 2.75, 3.75 AA
  #
  ################################################################################
  #  "First tier" - max. impr. -193.66  meV, min. impr. -18.25 meV
       hydro 4 f 7.4
       ionic 6 p auto
  #     hydro 5 g 9.8
       ionic 6 s auto
       hydro 3 d 2.6
  #  "Second tier" - max. impr. -10.25  meV, min. impr. -0.56 meV
  #     hydro 6 h 14
  #     hydro 5 f 14
  #     hydro 4 d 4
  #     hydro 3 p 3.3
  #     hydro 5 g 16.4
  #     hydro 1 s 0.5
  #  "Third tier" - max. impr. -0.72  meV, min. impr. -0.18 meV
  #     hydro 5 f 9
  #     ionic 5 d auto
  #     hydro 6 h 16.4
  #     hydro 5 g 12.4
  #     hydro 5 g 34
  #     hydro 5 s 13.6
  #     hydro 5 p 10.4
  #  Further functions: ################################################################################
  #
  #  FHI-aims code project
  #  VB, Fritz-Haber Institut, 2009
  #
  #  Suggested "light" defaults for Ir atom (to be pasted into control.in file)
  #  Be sure to double-check any results obtained with these settings for post-processing,
  #  e.g., with the "tight" defaults and larger basis sets.
  #
  ################################################################################
    species        Ir
  #     global species definitions
      nucleus             77
      mass                192.217
  #
      l_hartree           4
  #
      cut_pot             3.5  1.5  1.0
      basis_dep_cutoff    1e-4
  #
      radial_base         72 5.0
      radial_multiplier   1
      angular_grids specified
        division   0.3664   50
        division   0.9423  110
        division   1.2652  194
        division   1.6525  302
  #      division   1.8819  434
  #      division   2.0267  590
  #      division   2.0887  770
  #      division   2.1534  974
  #      division   2.6985 1202
  #      outer_grid  974
        outer_grid  302
  ################################################################################
  #
  #  Definition of "minimal" basis
  #
  ################################################################################
  #     valence basis states
      valence      6  s   2.
      valence      5  p   6.
      valence      5  d   7.
      valence      4  f  14.
  #     ion occupancy
      ion_occ     6  s   1.
      ion_occ     5  p   6.
      ion_occ     5  d   6.
      ion_occ     4  f   14.
  ################################################################################
  #
  #  Suggested additional basis functions. For production calculations,
  #  uncomment them one after another (the most important basis functions are
  #  listed first).
  #
  #  Constructed for dimers: 1.85, 2.125, 2.5, 3.25, 4.25 AA
  #
  ################################################################################
  #  "First tier" - max. impr. -337.32  meV, min. impr. -28.04 meV
       hydro 4 f 8.2
       ionic 6 p auto
  #     hydro 5 g 10.8
       hydro 3 d 2.9
       ionic 6 s auto
  #  "Second tier" - max. impr. -17.86  meV, min. impr. -0.56 meV
  #     hydro 6 h 15.6
  #     hydro 5 f 7.8
  #     hydro 5 f 14
  #     hydro 5 g 17.2
  #     hydro 3 p 3.7
  #     hydro 4 d 8.4
  #     hydro 1 s 0.6
  #  "Third tier" - max. impr. -0.76 meV, min. impr. -0.18 meV
  #     hydro 5 g 34.4
  #     hydro 3 d 6
  #     hydro 6 h 18.8
  #     hydro 5 f 12.4
  #     hydro 5 g 15.6
  #     hydro 2 p 3.5
  #     hydro 5 s 13.6
  #  Further functions - impr.: -0.19 meV and below
  #     hydro 6 h 25.6
  ################################################################################
  #
  #  FHI-aims code project
  #  VB, Fritz-Haber Institut, 2009
  #
  #  Suggested "light" defaults for Os atom (to be pasted into control.in file)
  #  Be sure to double-check any results obtained with these settings for post-processing,
  #  e.g., with the "tight" defaults and larger basis sets.
  #
  ################################################################################
    species          Os
  #     global species definitions
      nucleus        76
      mass           190.23
  #
      l_hartree      4
  #
      cut_pot        3.5  1.5  1.0
      basis_dep_cutoff    1e-4
  #
      radial_base    72  5.0
      radial_multiplier  1
      angular_grids specified
        division   0.3468   50
        division   0.9290  110
        division   1.2652  194
        division   1.5835  302
  #      division   1.8546  434
  #      division   1.9966  590
  #      division   2.0267  770
  #      division   2.0887  974
  #      division   2.6529 1202
  #      outer_grid  974
        outer_grid  302
  ################################################################################
  #
  #  Definition of "minimal" basis
  #
  ################################################################################
  #     valence basis states
      valence      6  s   2.
      valence      5  p   6.
      valence      5  d   6.
      valence      4  f  14.
  #     ion occupancy
      ion_occ      6  s   1.
      ion_occ      5  p   6.
      ion_occ      5  d   5.
      ion_occ      4  f  14.
  ################################################################################
  #
  #  Suggested additional basis functions. For production calculations,
  #  uncomment them one after another (the most important basis functions are
  #  listed first).
  #
  #  Constructed for dimers: 1.80, 2.04, 2.50, 3.25, 4.50 AA
  #
  ################################################################################
  #
  #  "First tier" - improvements: -453.39 meV to -28.79 meV
       hydro 4 f 8.2
       ionic 6 p auto
       ionic 5 d auto
  #     hydro 5 g 12
       ionic 6 s auto
  #  "Second tier" - improvements: -21.76 meV to - meV
  #     hydro 6 h 16.4
  #     hydro 3 p 3.6
  #     hydro 4 f 9.4
  #     hydro 5 d 7.6
  #     hydro 5 g 20.4
  #     hydro 4 s 4.3
  #  "Third tier" - max. impr. -1.69 meV, min. impr. -0.23 meV
  #     hydro 5 f 10.4
  #     hydro 6 h 21.2
  #     hydro 5 g 13.2
  #     hydro 5 g 38.8
  #     hydro 5 d 9.8
  #     hydro 2 p 1.9
  #     hydro 1 s 0.75
  #  "Fourth tier" - max. impr. -0.38 meV, min. impr. -0.17 meV
  #     hydro 6 h 22
  #     hydro 5 f 22.4
  #     hydro 5 p 10.4
  #     hydro 6 d 16
  #     hydro 7 s 11.2
  ################################################################################
  #
  #  FHI-aims code project
  #  VB, Fritz-Haber Institut, 2009
  #
  #  Suggested "light" defaults for Ce atom (to be pasted into control.in file)
  #  Be sure to double-check any results obtained with these settings for post-processing,
  #  e.g., with the "tight" defaults and larger basis sets.
  #
  ################################################################################
    species          Ce
  #     global species definitions
      nucleus        58
      mass           140.116
  #
      l_hartree      4
  #
      cut_pot        4.0  1.5  1.0
      basis_dep_cutoff    1e-4
  #
      radial_base    66  5.5
      radial_multiplier  1
      angular_grids specified
        division   0.1028  110
        division   0.1495  194
        division   0.8411  302
  #      division   0.9338  434
  #      division   0.9935  590
  #      division   1.0783  770
  #      division   3.5126  974
  #      outer_grid  974
        outer_grid  302
  ################################################################################
  #
  #  Definition of "minimal" basis
  #
  ################################################################################
  #     valence basis states
      valence      6  s   2.
      valence      5  p   6.
      valence      5  d   1.
      valence      4  f   1.
  #     ion occupancy
      ion_occ      6  s   1.
      ion_occ      5  p   6.
      ion_occ      5  d   0.
      ion_occ      4  f   0.
  ################################################################################
  #
  #  Suggested additional basis functions. For production calculations,
  #  uncomment them one after another (the most important basis functions are
  #  listed first).
  #
  #  Constructed for dimers: 2.0, 2.375, 2.875, 3.5, 4.5 AA
  #
  ################################################################################
  #  "First tier" - improvements: -540.10 meV to -12.77 meV
       hydro 4 d 4.8
       hydro 5 g 11.2
       hydro 4 f 7.6
       hydro 2 p 1.8
       hydro 3 s 2.7
  #  "Second tier" - improvements: -48.86 meV to -0.65 meV
  #     hydro 6 h 14.8
  #     hydro 4 f 5.2
  #     hydro 3 d 3
  #     hydro 3 d 2.2
  #     hydro 5 g 11.6
  #     hydro 3 p 2.8
  #     ionic 6 s auto
  #  "Third tier" - max. impr. -2.32 meV, min. impr. -0.31 meV
  #     hydro 6 h 15.2
  #     hydro 4 f 8.2
  #     hydro 5 g 30
  #     hydro 6 d 16.4
  #     hydro 5 f 15.6
  #     hydro 5 p 17.6
  #     hydro 4 s 7.2
  #  Fourth tier  - max. impr. -0.36 meV, min. impr. -0.17 meV
  #     hydro 5 g 20
  #     hydro 4 f 16.4
  #     hydro 6 d 20
  #     hydro 6 p 9.2
  #     hydro 1 s 0.85
  #     hydro 6 h 14
  ################################################################################
  #
  #  FHI-aims code project
  #  VB, Fritz-Haber Institut, 2009
  #
  #  Suggested "light" defaults for Ti atom (to be pasted into control.in file)
  #  Be sure to double-check any results obtained with these settings for post-processing,
  #  e.g., with the "tight" defaults and larger basis sets.
  #
  ################################################################################
    species        Ti
  #     global species definitions
      nucleus             22
      mass                47.867
  #
      l_hartree           4
  #
      cut_pot             3.5          1.5  1.0
      basis_dep_cutoff    1e-4
  #
      radial_base         48 5.0
      radial_multiplier   1
      angular_grids       specified
        division   0.5171   50
        division   0.9824  110
        division   1.2917  194
        division   1.4940  302
  #      division   1.6934  434
  #      division   1.8425  590
  #      division   2.1901  770
  #      division   2.2896  974
  #      division   2.8244 1202
  #      outer_grid  974
        outer_grid  302
  ################################################################################
  #
  #  Definition of "minimal" basis
  #
  ################################################################################
  #     valence basis states
      valence      4  s   2.
      valence      3  p   6.
      valence      3  d   2.
  #     ion occupancy
      ion_occ      4  s   1.
      ion_occ      3  p   6.
      ion_occ      3  d   1.
  ################################################################################
  #
  #  Suggested additional basis functions. For production calculations,
  #  uncomment them one after another (the most important basis functions are
  #  listed first).
  #
  #  Constructed for dimers: 1.6 A, 1.85 A, 2.5 A, 3.25 A, 4.25 A
  #
  ################################################################################
  #  "First tier" - improvements: -396.25 meV to -19.41 meV
       hydro 4 f 8
       hydro 3 d 2.7
       ionic 4 p auto
  #     hydro 5 g 11.6
       ionic 4 s auto
  #  "Second tier" - improvements: -16.30 meV to -2.03 meV
  #     hydro 3 d 4.4
  #     hydro 6 h 16
  #     hydro 4 f 9.4
  #     hydro 4 p 4.5
  #     hydro 1 s 0.5
  #  "Third tier" - improvements: -6.28 meV to -0.37 meV
  #     hydro 4 d 6.4
  #     hydro 4 f 10
  #     hydro 5 g 12
  #     hydro 2 p 1.7
  #     hydro 6 h 16.4
  #     hydro 4 s 3.8
  #  Further basis functions: -0.45 meV and smaller improvements
  #     hydro 3 d 8.8
  #     hydro 5 p 18
  #     hydro 4 f 22.4
  #     hydro 5 f 7.2  # -0.16 meV
  #     hydro 3 d 2.1  # -0.11 meV
  #     hydro 5 g 7.4  # -0.09 meV
  
  -----------------------------------------------------------------------
  Completed first pass over input file control.in .
  -----------------------------------------------------------------------
  
  
  -----------------------------------------------------------------------
  Parsing geometry.in (first pass over file, find array dimensions only).
  The contents of geometry.in will be repeated verbatim below
  unless switched off by setting 'verbatim_writeout .false.' .
  in the first line of geometry.in .
  -----------------------------------------------------------------------
  
  # Generated by writeaimsin.py custom FHI-aims writer
  lattice_vector 8.965000640000 0.000000000000 0.000000000000
  lattice_vector 0.000000000000 8.965000640000 0.000000000000
  lattice_vector 0.000000000000 0.000000000000 6.222682800000
  atom 2.241250160000 2.241250160000 1.555670700000 Ru
  initial_moment 1.00000000
  atom 0.000000000000 0.000000000000 0.000000000000 Ru
  initial_moment -1.00000000
  atom 0.872105580059 3.610394739941 1.555670700000 O
  atom 3.610394739941 0.872105580059 1.555670700000 O
  atom 3.113355740059 3.113355740059 0.000000000000 O
  atom 1.369144579941 1.369144579941 0.000000000000 O
  atom 2.241250160000 2.241250160000 4.667012100000 Ru
  initial_moment 1.00000000
  atom 0.000000000000 0.000000000000 3.111341400000 Ru
  initial_moment -1.00000000
  atom 0.872105580059 3.610394739941 4.667012100000 O
  atom 3.610394739941 0.872105580059 4.667012100000 O
  atom 3.113355740059 3.113355740059 3.111341400000 O
  atom 1.369144579941 1.369144579941 3.111341400000 O
  atom 2.241250160000 6.723750480000 1.555670700000 Ru
  initial_moment 1.00000000
  atom 0.000000000000 4.482500320000 0.000000000000 Ru
  initial_moment -1.00000000
  atom 0.872105580059 8.092895059941 1.555670700000 O
  atom 3.610394739941 5.354605900059 1.555670700000 O
  atom 3.113355740059 7.595856060059 0.000000000000 O
  atom 1.369144579941 5.851644899941 0.000000000000 O
  atom 2.241250160000 6.723750480000 4.667012100000 Ru
  initial_moment 1.00000000
  atom 0.000000000000 4.482500320000 3.111341400000 Ru
  initial_moment -1.00000000
  atom 0.872105580059 8.092895059941 4.667012100000 O
  atom 3.610394739941 5.354605900059 4.667012100000 O
  atom 3.113355740059 7.595856060059 3.111341400000 O
  atom 1.369144579941 5.851644899941 3.111341400000 O
  atom 6.723750480000 2.241250160000 1.555670700000 Ru
  initial_moment 1.00000000
  atom 4.482500320000 0.000000000000 0.000000000000 Ru
  initial_moment -1.00000000
  atom 5.354605900059 3.610394739941 1.555670700000 O
  atom 8.092895059941 0.872105580059 1.555670700000 O
  atom 7.595856060059 3.113355740059 0.000000000000 O
  atom 5.851644899941 1.369144579941 0.000000000000 O
  atom 6.723750480000 2.241250160000 4.667012100000 Ru
  initial_moment 1.00000000
  atom 4.482500320000 0.000000000000 3.111341400000 Ru
  initial_moment -1.00000000
  atom 5.354605900059 3.610394739941 4.667012100000 O
  atom 8.092895059941 0.872105580059 4.667012100000 O
  atom 7.595856060059 3.113355740059 3.111341400000 O
  atom 5.851644899941 1.369144579941 3.111341400000 O
  atom 6.723750480000 6.723750480000 1.555670700000 Ru
  initial_moment 1.00000000
  atom 4.482500320000 4.482500320000 0.000000000000 Ru
  initial_moment -1.00000000
  atom 5.354605900059 8.092895059941 1.555670700000 O
  atom 8.092895059941 5.354605900059 1.555670700000 O
  atom 7.595856060059 7.595856060059 0.000000000000 O
  atom 5.851644899941 5.851644899941 0.000000000000 O
  atom 6.723750480000 6.723750480000 4.667012100000 Ru
  initial_moment 1.00000000
  atom 4.482500320000 4.482500320000 3.111341400000 Ru
  initial_moment -1.00000000
  atom 5.354605900059 8.092895059941 4.667012100000 O
  atom 8.092895059941 5.354605900059 4.667012100000 O
  atom 7.595856060059 7.595856060059 3.111341400000 O
  atom 5.851644899941 5.851644899941 3.111341400000 O
  
  -----------------------------------------------------------------------
  Completed first pass over input file geometry.in .
  -----------------------------------------------------------------------
  

  Basic array size parameters:
  | Number of species                 :       11
  | Number of atoms                   :       48
  | Number of lattice vectors         :        3
  | Max. basis fn. angular momentum   :        4
  | Max. atomic/ionic basis occupied n:        6
  | Max. number of basis fn. types    :        3
  | Max. radial fns per species/type  :       15
  | Max. logarithmic grid size        :     1491
  | Max. radial integration grid size :       74
  | Max. angular integration grid size:      302
  | Max. angular grid division number :        8
  | Radial grid for Hartree potential :     1491
  | Number of spin channels           :        2

------------------------------------------------------------
          Reading file control.in.
------------------------------------------------------------
  XC: Using PBE gradient-corrected functionals.
  Charge =   0.000000E+00: Neutral system requested explicitly.
  Spin treatment: Spin density functional theory - collinear spins.
  Initial spin moment per atom:   0.0000
  Scalar relativistic treatment of kinetic energy: on-site free-atom approximation to ZORA.
  Charge =   0.000000E+00: Neutral system requested explicitly.
  Occupation type: Gaussian broadening, width =   0.250000E-01 eV.
  Using pulay charge density mixing.
  Pulay mixing - number of memorized iterations:   10
  Charge density mixing - mixing parameter:     0.1000
  Convergence accuracy of self-consistent charge density:  0.1000E-01
  Convergence accuracy of sum of eigenvalues:  0.5000E-01
  Convergence accuracy of total energy:  0.1000E-02
  Convergence accuracy of forces:  0.1000E-01
  Maximum number of s.-c. iterations  :  2000
  Geometry relaxation: Modified BFGS - TRM (trust radius method) for lattice optimization.
  Convergence accuracy for geometry relaxation: Maximum force <   0.500000E-01 eV/A.
  The 'LVL' version of RI (resolution of identity) technique is used.
  ** This is a localized expansion of all basis function products.
     Its intended use are Hartree-Fock and hybrid functionals.
     For RPA, MP2, GW, etc., LVL is not yet as accurate. In those cases, check carefully.
  Found k-point grid:         4         4         4
  Hirshfeld charge analysis will be performed.
 
  Reading configuration options for species Pb                  .
  | Found nuclear charge :  82.0000
  | Found atomic mass :    207.200000000000      amu
  | Found l_max for Hartree potential  :   4
  | Found cutoff potl. onset [A], width [A], scale factor :    4.00000    1.50000    1.00000
  | Threshold for basis-dependent cutoff potential is   0.100000E-03
  | Found data for basic radial integration grid :    74 points, outermost radius =    5.500 A
  | Found multiplier for basic radial grid :   1
  | Found angular grid specification: user-specified.
  | Specified grid contains     4 separate shells.
  | Check grid settings after all constraints further below.
  | Found free-atom valence shell :  6 s   2.000
  | Found free-atom valence shell :  6 p   2.000
  | Found free-atom valence shell :  5 d  10.000
  | Found free-atom valence shell :  4 f  14.000
  | Found free-ion valence shell :  6 s   1.000
  | Found free-ion valence shell :  6 p   1.000
  | Found free-ion valence shell :  5 d  10.000
  | Found free-ion valence shell :  4 f  14.000
  | Found hydrogenic basis function :  3 p   2.300
  | Found hydrogenic basis function :  4 f   7.600
  | Found hydrogenic basis function :  3 d   3.500
  | Found hydrogenic basis function :  3 s   3.200
 | Encountered keyword species, ending the description of species Pb                  .
  Species Pb                  : Missing cutoff potential type.
  Defaulting to exp(1/x)/(1-x)^2 type cutoff potential.
  Species Pb: No 'logarithmic' tag. Using default grid for free atom:
  | Default logarithmic grid data [bohr] : 0.1000E-03 0.1000E+03 0.1012E+01
  Species Pb: On-site basis accuracy parameter (for Gram-Schmidt orthonormalisation) not specified.
  Using default value basis_acc =  0.1000000E-03.
  Species Pb                  : Using default innermost maximum threshold i_radial=  2 for radial functions.
  Species Pb                  : Default cutoff onset for free atom density etc. : 0.40000000E+01 AA.
  Species Pb                  : Basic radial grid will be enhanced according to radial_multiplier =   1, to contain    74 grid points.
 
  Reading configuration options for species O                   .
  | Found nuclear charge :   8.0000
  | Found atomic mass :    15.9994000000000      amu
  | Found l_max for Hartree potential  :   4
  | Found cutoff potl. onset [A], width [A], scale factor :    3.50000    1.50000    1.00000
  | Threshold for basis-dependent cutoff potential is   0.100000E-03
  | Found data for basic radial integration grid :    36 points, outermost radius =    5.000 A
  | Found multiplier for basic radial grid :   1
  | Found angular grid specification: user-specified.
  | Specified grid contains     5 separate shells.
  | Check grid settings after all constraints further below.
  | Found free-atom valence shell :  2 s   2.000
  | Found free-atom valence shell :  2 p   4.000
  | Found free-ion valence shell :  2 s   1.000
  | Found free-ion valence shell :  2 p   3.000
  | Found hydrogenic basis function :  2 p   1.800
  | Found hydrogenic basis function :  3 d   7.600
  | Found hydrogenic basis function :  3 s   6.400
 | Encountered keyword species, ending the description of species O                   .
  Species O                   : Missing cutoff potential type.
  Defaulting to exp(1/x)/(1-x)^2 type cutoff potential.
  Species O : No 'logarithmic' tag. Using default grid for free atom:
  | Default logarithmic grid data [bohr] : 0.1000E-03 0.1000E+03 0.1012E+01
  Species O : On-site basis accuracy parameter (for Gram-Schmidt orthonormalisation) not specified.
  Using default value basis_acc =  0.1000000E-03.
  Species O                   : Using default innermost maximum threshold i_radial=  2 for radial functions.
  Species O                   : Default cutoff onset for free atom density etc. : 0.35000000E+01 AA.
  Species O                   : Basic radial grid will be enhanced according to radial_multiplier =   1, to contain    36 grid points.
 
  Reading configuration options for species Pd                  .
  | Found nuclear charge :  46.0000
  | Found atomic mass :    106.420000000000      amu
  | Found l_max for Hartree potential  :   4
  | Found cutoff potl. onset [A], width [A], scale factor :    3.50000    1.50000    1.00000
  | Threshold for basis-dependent cutoff potential is   0.100000E-03
  | Found data for basic radial integration grid :    62 points, outermost radius =    5.000 A
  | Found multiplier for basic radial grid :   1
  | Found angular grid specification: user-specified.
  | Specified grid contains     5 separate shells.
  | Check grid settings after all constraints further below.
  | Found free-atom valence shell :  5 s   1.000
  | Found free-atom valence shell :  4 p   6.000
  | Found free-atom valence shell :  4 d   9.000
  | Found free-ion valence shell :  5 s   0.000
  | Found free-ion valence shell :  4 p   6.000
  | Found free-ion valence shell :  4 d   8.000
  | Found ionic basis function :  5 p , default cutoff radius.
  | Found hydrogenic basis function :  4 f   8.000
  | Found hydrogenic basis function :  3 s   2.600
  | Found hydrogenic basis function :  3 d   2.500
 | Encountered keyword species, ending the description of species Pd                  .
  Species Pd                  : Missing cutoff potential type.
  Defaulting to exp(1/x)/(1-x)^2 type cutoff potential.
  Species Pd: No 'logarithmic' tag. Using default grid for free atom:
  | Default logarithmic grid data [bohr] : 0.1000E-03 0.1000E+03 0.1012E+01
  | Will include ionic basis functions of  2.0-fold positive Pd                   ion.
  Species Pd: On-site basis accuracy parameter (for Gram-Schmidt orthonormalisation) not specified.
  Using default value basis_acc =  0.1000000E-03.
  Species Pd                  : Using default innermost maximum threshold i_radial=  2 for radial functions.
  Species Pd                  : Default cutoff onset for free atom density etc. : 0.35000000E+01 AA.
  Species Pd                  : Basic radial grid will be enhanced according to radial_multiplier =   1, to contain    62 grid points.
 
  Reading configuration options for species Ru                  .
  | Found nuclear charge :  44.0000
  | Found atomic mass :    101.070000000000      amu
  | Found l_max for Hartree potential  :   4
  | Found cutoff potl. onset [A], width [A], scale factor :    3.50000    1.50000    1.00000
  | Threshold for basis-dependent cutoff potential is   0.100000E-03
  | Found data for basic radial integration grid :    60 points, outermost radius =    5.000 A
  | Found multiplier for basic radial grid :   1
  | Found angular grid specification: user-specified.
  | Specified grid contains     5 separate shells.
  | Check grid settings after all constraints further below.
  | Found free-atom valence shell :  5 s   1.000
  | Found free-atom valence shell :  4 p   6.000
  | Found free-atom valence shell :  4 d   7.000
  | Found free-ion valence shell :  5 s   0.000
  | Found free-ion valence shell :  4 p   6.000
  | Found free-ion valence shell :  4 d   6.000
  | Found hydrogenic basis function :  4 f   8.800
  | Found ionic basis function :  4 d , default cutoff radius.
  | Found ionic basis function :  5 p , default cutoff radius.
  | Found hydrogenic basis function :  3 s   2.400
 | Encountered keyword species, ending the description of species Ru                  .
  Species Ru                  : Missing cutoff potential type.
  Defaulting to exp(1/x)/(1-x)^2 type cutoff potential.
  Species Ru: No 'logarithmic' tag. Using default grid for free atom:
  | Default logarithmic grid data [bohr] : 0.1000E-03 0.1000E+03 0.1012E+01
  | Will include ionic basis functions of  2.0-fold positive Ru                   ion.
  Species Ru: On-site basis accuracy parameter (for Gram-Schmidt orthonormalisation) not specified.
  Using default value basis_acc =  0.1000000E-03.
  Species Ru                  : Using default innermost maximum threshold i_radial=  2 for radial functions.
  Species Ru                  : Default cutoff onset for free atom density etc. : 0.35000000E+01 AA.
  Species Ru                  : Basic radial grid will be enhanced according to radial_multiplier =   1, to contain    60 grid points.
 
  Reading configuration options for species V                   .
  | Found nuclear charge :  23.0000
  | Found atomic mass :    50.9415000000000      amu
  | Found l_max for Hartree potential  :   4
  | Found cutoff potl. onset [A], width [A], scale factor :    3.50000    1.50000    1.00000
  | Threshold for basis-dependent cutoff potential is   0.100000E-03
  | Found data for basic radial integration grid :    49 points, outermost radius =    5.000 A
  | Found multiplier for basic radial grid :   1
  | Found angular grid specification: user-specified.
  | Specified grid contains     5 separate shells.
  | Check grid settings after all constraints further below.
  | Found free-atom valence shell :  4 s   2.000
  | Found free-atom valence shell :  3 p   6.000
  | Found free-atom valence shell :  3 d   3.000
  | Found free-ion valence shell :  4 s   1.000
  | Found free-ion valence shell :  3 p   6.000
  | Found free-ion valence shell :  3 d   2.000
  | Found hydrogenic basis function :  4 f   9.000
  | Found hydrogenic basis function :  3 d   3.000
  | Found ionic basis function :  4 p , default cutoff radius.
  | Found ionic basis function :  4 s , default cutoff radius.
 | Encountered keyword species, ending the description of species V                   .
  Species V                   : Missing cutoff potential type.
  Defaulting to exp(1/x)/(1-x)^2 type cutoff potential.
  Species V : No 'logarithmic' tag. Using default grid for free atom:
  | Default logarithmic grid data [bohr] : 0.1000E-03 0.1000E+03 0.1012E+01
  | Will include ionic basis functions of  2.0-fold positive V                    ion.
  Species V : On-site basis accuracy parameter (for Gram-Schmidt orthonormalisation) not specified.
  Using default value basis_acc =  0.1000000E-03.
  Species V                   : Using default innermost maximum threshold i_radial=  2 for radial functions.
  Species V                   : Default cutoff onset for free atom density etc. : 0.35000000E+01 AA.
  Species V                   : Basic radial grid will be enhanced according to radial_multiplier =   1, to contain    49 grid points.
 
  Reading configuration options for species Sn                  .
  | Found nuclear charge :  50.0000
  | Found atomic mass :    118.710000000000      amu
  | Found l_max for Hartree potential  :   4
  | Found cutoff potl. onset [A], width [A], scale factor :    3.50000    1.50000    1.00000
  | Threshold for basis-dependent cutoff potential is   0.100000E-03
  | Found data for basic radial integration grid :    63 points, outermost radius =    5.000 A
  | Found multiplier for basic radial grid :   1
  | Found angular grid specification: user-specified.
  | Specified grid contains     3 separate shells.
  | Check grid settings after all constraints further below.
  | Found free-atom valence shell :  5 s   2.000
  | Found free-atom valence shell :  5 p   2.000
  | Found free-atom valence shell :  4 d  10.000
  | Found free-ion valence shell :  5 s   1.000
  | Found free-ion valence shell :  5 p   1.000
  | Found free-ion valence shell :  4 d  10.000
  | Found hydrogenic basis function :  2 p   1.300
  | Found hydrogenic basis function :  3 d   3.700
  | Found ionic basis function :  5 s , default cutoff radius.
 | Encountered keyword species, ending the description of species Sn                  .
  Species Sn                  : Missing cutoff potential type.
  Defaulting to exp(1/x)/(1-x)^2 type cutoff potential.
  Species Sn: No 'logarithmic' tag. Using default grid for free atom:
  | Default logarithmic grid data [bohr] : 0.1000E-03 0.1000E+03 0.1012E+01
  | Will include ionic basis functions of  2.0-fold positive Sn                   ion.
  Species Sn: On-site basis accuracy parameter (for Gram-Schmidt orthonormalisation) not specified.
  Using default value basis_acc =  0.1000000E-03.
  Species Sn                  : Using default innermost maximum threshold i_radial=  2 for radial functions.
  Species Sn                  : Default cutoff onset for free atom density etc. : 0.35000000E+01 AA.
  Species Sn                  : Basic radial grid will be enhanced according to radial_multiplier =   1, to contain    63 grid points.
 
  Reading configuration options for species Pt                  .
  | Found nuclear charge :  78.0000
  | Found atomic mass :    195.084000000000      amu
  | Found l_max for Hartree potential  :   4
  | Found cutoff potl. onset [A], width [A], scale factor :    3.50000    1.50000    1.00000
  | Threshold for basis-dependent cutoff potential is   0.100000E-03
  | Found data for basic radial integration grid :    72 points, outermost radius =    5.000 A
  | Found multiplier for basic radial grid :   1
  | Found angular grid specification: user-specified.
  | Specified grid contains     5 separate shells.
  | Check grid settings after all constraints further below.
  | Found free-atom valence shell :  6 s   1.000
  | Found free-atom valence shell :  5 p   6.000
  | Found free-atom valence shell :  5 d   9.000
  | Found free-atom valence shell :  4 f  14.000
  | Found free-ion valence shell :  6 s   0.000
  | Found free-ion valence shell :  5 p   6.000
  | Found free-ion valence shell :  5 d   8.000
  | Found free-ion valence shell :  4 f  14.000
  | Found hydrogenic basis function :  4 f   7.400
  | Found ionic basis function :  6 p , default cutoff radius.
  | Found ionic basis function :  6 s , default cutoff radius.
  | Found hydrogenic basis function :  3 d   2.600
 | Encountered keyword species, ending the description of species Pt                  .
  Species Pt                  : Missing cutoff potential type.
  Defaulting to exp(1/x)/(1-x)^2 type cutoff potential.
  Species Pt: No 'logarithmic' tag. Using default grid for free atom:
  | Default logarithmic grid data [bohr] : 0.1000E-03 0.1000E+03 0.1012E+01
  | Will include ionic basis functions of  2.0-fold positive Pt                   ion.
  Species Pt: On-site basis accuracy parameter (for Gram-Schmidt orthonormalisation) not specified.
  Using default value basis_acc =  0.1000000E-03.
  Species Pt                  : Using default innermost maximum threshold i_radial=  2 for radial functions.
  Species Pt                  : Default cutoff onset for free atom density etc. : 0.35000000E+01 AA.
  Species Pt                  : Basic radial grid will be enhanced according to radial_multiplier =   1, to contain    72 grid points.
 
  Reading configuration options for species Ir                  .
  | Found nuclear charge :  77.0000
  | Found atomic mass :    192.217000000000      amu
  | Found l_max for Hartree potential  :   4
  | Found cutoff potl. onset [A], width [A], scale factor :    3.50000    1.50000    1.00000
  | Threshold for basis-dependent cutoff potential is   0.100000E-03
  | Found data for basic radial integration grid :    72 points, outermost radius =    5.000 A
  | Found multiplier for basic radial grid :   1
  | Found angular grid specification: user-specified.
  | Specified grid contains     5 separate shells.
  | Check grid settings after all constraints further below.
  | Found free-atom valence shell :  6 s   2.000
  | Found free-atom valence shell :  5 p   6.000
  | Found free-atom valence shell :  5 d   7.000
  | Found free-atom valence shell :  4 f  14.000
  | Found free-ion valence shell :  6 s   1.000
  | Found free-ion valence shell :  5 p   6.000
  | Found free-ion valence shell :  5 d   6.000
  | Found free-ion valence shell :  4 f  14.000
  | Found hydrogenic basis function :  4 f   8.200
  | Found ionic basis function :  6 p , default cutoff radius.
  | Found hydrogenic basis function :  3 d   2.900
  | Found ionic basis function :  6 s , default cutoff radius.
 | Encountered keyword species, ending the description of species Ir                  .
  Species Ir                  : Missing cutoff potential type.
  Defaulting to exp(1/x)/(1-x)^2 type cutoff potential.
  Species Ir: No 'logarithmic' tag. Using default grid for free atom:
  | Default logarithmic grid data [bohr] : 0.1000E-03 0.1000E+03 0.1012E+01
  | Will include ionic basis functions of  2.0-fold positive Ir                   ion.
  Species Ir: On-site basis accuracy parameter (for Gram-Schmidt orthonormalisation) not specified.
  Using default value basis_acc =  0.1000000E-03.
  Species Ir                  : Using default innermost maximum threshold i_radial=  2 for radial functions.
  Species Ir                  : Default cutoff onset for free atom density etc. : 0.35000000E+01 AA.
  Species Ir                  : Basic radial grid will be enhanced according to radial_multiplier =   1, to contain    72 grid points.
 
  Reading configuration options for species Os                  .
  | Found nuclear charge :  76.0000
  | Found atomic mass :    190.230000000000      amu
  | Found l_max for Hartree potential  :   4
  | Found cutoff potl. onset [A], width [A], scale factor :    3.50000    1.50000    1.00000
  | Threshold for basis-dependent cutoff potential is   0.100000E-03
  | Found data for basic radial integration grid :    72 points, outermost radius =    5.000 A
  | Found multiplier for basic radial grid :   1
  | Found angular grid specification: user-specified.
  | Specified grid contains     5 separate shells.
  | Check grid settings after all constraints further below.
  | Found free-atom valence shell :  6 s   2.000
  | Found free-atom valence shell :  5 p   6.000
  | Found free-atom valence shell :  5 d   6.000
  | Found free-atom valence shell :  4 f  14.000
  | Found free-ion valence shell :  6 s   1.000
  | Found free-ion valence shell :  5 p   6.000
  | Found free-ion valence shell :  5 d   5.000
  | Found free-ion valence shell :  4 f  14.000
  | Found hydrogenic basis function :  4 f   8.200
  | Found ionic basis function :  6 p , default cutoff radius.
  | Found ionic basis function :  5 d , default cutoff radius.
  | Found ionic basis function :  6 s , default cutoff radius.
 | Encountered keyword species, ending the description of species Os                  .
  Species Os                  : Missing cutoff potential type.
  Defaulting to exp(1/x)/(1-x)^2 type cutoff potential.
  Species Os: No 'logarithmic' tag. Using default grid for free atom:
  | Default logarithmic grid data [bohr] : 0.1000E-03 0.1000E+03 0.1012E+01
  | Will include ionic basis functions of  2.0-fold positive Os                   ion.
  Species Os: On-site basis accuracy parameter (for Gram-Schmidt orthonormalisation) not specified.
  Using default value basis_acc =  0.1000000E-03.
  Species Os                  : Using default innermost maximum threshold i_radial=  2 for radial functions.
  Species Os                  : Default cutoff onset for free atom density etc. : 0.35000000E+01 AA.
  Species Os                  : Basic radial grid will be enhanced according to radial_multiplier =   1, to contain    72 grid points.
 
  Reading configuration options for species Ce                  .
  | Found nuclear charge :  58.0000
  | Found atomic mass :    140.116000000000      amu
  | Found l_max for Hartree potential  :   4
  | Found cutoff potl. onset [A], width [A], scale factor :    4.00000    1.50000    1.00000
  | Threshold for basis-dependent cutoff potential is   0.100000E-03
  | Found data for basic radial integration grid :    66 points, outermost radius =    5.500 A
  | Found multiplier for basic radial grid :   1
  | Found angular grid specification: user-specified.
  | Specified grid contains     4 separate shells.
  | Check grid settings after all constraints further below.
  | Found free-atom valence shell :  6 s   2.000
  | Found free-atom valence shell :  5 p   6.000
  | Found free-atom valence shell :  5 d   1.000
  | Found free-atom valence shell :  4 f   1.000
  | Found free-ion valence shell :  6 s   1.000
  | Found free-ion valence shell :  5 p   6.000
  | Found free-ion valence shell :  5 d   0.000
  | Found free-ion valence shell :  4 f   0.000
  | Found hydrogenic basis function :  4 d   4.800
  | Found hydrogenic basis function :  5 g  11.200
  | Found hydrogenic basis function :  4 f   7.600
  | Found hydrogenic basis function :  2 p   1.800
  | Found hydrogenic basis function :  3 s   2.700
 | Encountered keyword species, ending the description of species Ce                  .
  Species Ce                  : Missing cutoff potential type.
  Defaulting to exp(1/x)/(1-x)^2 type cutoff potential.
  Species Ce: No 'logarithmic' tag. Using default grid for free atom:
  | Default logarithmic grid data [bohr] : 0.1000E-03 0.1000E+03 0.1012E+01
  Species Ce: On-site basis accuracy parameter (for Gram-Schmidt orthonormalisation) not specified.
  Using default value basis_acc =  0.1000000E-03.
  Species Ce                  : Using default innermost maximum threshold i_radial=  2 for radial functions.
  Species Ce                  : Default cutoff onset for free atom density etc. : 0.40000000E+01 AA.
  Species Ce                  : Basic radial grid will be enhanced according to radial_multiplier =   1, to contain    66 grid points.
 
  Reading configuration options for species Ti                  .
  | Found nuclear charge :  22.0000
  | Found atomic mass :    47.8670000000000      amu
  | Found l_max for Hartree potential  :   4
  | Found cutoff potl. onset [A], width [A], scale factor :    3.50000    1.50000    1.00000
  | Threshold for basis-dependent cutoff potential is   0.100000E-03
  | Found data for basic radial integration grid :    48 points, outermost radius =    5.000 A
  | Found multiplier for basic radial grid :   1
  | Found angular grid specification: user-specified.
  | Specified grid contains     5 separate shells.
  | Check grid settings after all constraints further below.
  | Found free-atom valence shell :  4 s   2.000
  | Found free-atom valence shell :  3 p   6.000
  | Found free-atom valence shell :  3 d   2.000
  | Found free-ion valence shell :  4 s   1.000
  | Found free-ion valence shell :  3 p   6.000
  | Found free-ion valence shell :  3 d   1.000
  | Found hydrogenic basis function :  4 f   8.000
  | Found hydrogenic basis function :  3 d   2.700
  | Found ionic basis function :  4 p , default cutoff radius.
  | Found ionic basis function :  4 s , default cutoff radius.
  Species Ti                  : Missing cutoff potential type.
  Defaulting to exp(1/x)/(1-x)^2 type cutoff potential.
  Species Ti: No 'logarithmic' tag. Using default grid for free atom:
  | Default logarithmic grid data [bohr] : 0.1000E-03 0.1000E+03 0.1012E+01
  | Will include ionic basis functions of  2.0-fold positive Ti                   ion.
  Species Ti: On-site basis accuracy parameter (for Gram-Schmidt orthonormalisation) not specified.
  Using default value basis_acc =  0.1000000E-03.
  Species Ti                  : Using default innermost maximum threshold i_radial=  2 for radial functions.
  Species Ti                  : Default cutoff onset for free atom density etc. : 0.35000000E+01 AA.
  Species Ti                  : Basic radial grid will be enhanced according to radial_multiplier =   1, to contain    48 grid points.
 
  Finished reading input file 'control.in'.
 
------------------------------------------------------------


------------------------------------------------------------
          Reading geometry description geometry.in.
------------------------------------------------------------
  | The smallest distance between any two atoms is         1.93626283 AA.
  | The first atom of this pair is atom number                      1 .
  | The second atom of this pair is atom number                     3 .
  | Wigner-Seitz cell of the first atom image           0     0     0 .
  | (The Wigner-Seitz cell of the second atom is 0 0 0  by definition.)

  Symmetry information by spglib:
  | Precision set to  0.1E-04
  | Number of Operations  : 128
  | Space group           : 136
  | International         : P4_2/mnm
  | Schoenflies           : D4h^14
  Input structure read successfully.
  The structure contains       48 atoms,  and a total of        960.000 electrons.

  Input geometry:
  | Unit cell:
  |        8.96500064        0.00000000        0.00000000
  |        0.00000000        8.96500064        0.00000000
  |        0.00000000        0.00000000        6.22268280
  | Atomic structure:
  |       Atom                x [A]            y [A]            z [A]
  |    1: Species Ru            2.24125016        2.24125016        1.55567070
  |    2: Species Ru            0.00000000        0.00000000        0.00000000
  |    3: Species O             0.87210558        3.61039474        1.55567070
  |    4: Species O             3.61039474        0.87210558        1.55567070
  |    5: Species O             3.11335574        3.11335574        0.00000000
  |    6: Species O             1.36914458        1.36914458        0.00000000
  |    7: Species Ru            2.24125016        2.24125016        4.66701210
  |    8: Species Ru            0.00000000        0.00000000        3.11134140
  |    9: Species O             0.87210558        3.61039474        4.66701210
  |   10: Species O             3.61039474        0.87210558        4.66701210
  |   11: Species O             3.11335574        3.11335574        3.11134140
  |   12: Species O             1.36914458        1.36914458        3.11134140
  |   13: Species Ru            2.24125016        6.72375048        1.55567070
  |   14: Species Ru            0.00000000        4.48250032        0.00000000
  |   15: Species O             0.87210558        8.09289506        1.55567070
  |   16: Species O             3.61039474        5.35460590        1.55567070
  |   17: Species O             3.11335574        7.59585606        0.00000000
  |   18: Species O             1.36914458        5.85164490        0.00000000
  |   19: Species Ru            2.24125016        6.72375048        4.66701210
  |   20: Species Ru            0.00000000        4.48250032        3.11134140
  |   21: Species O             0.87210558        8.09289506        4.66701210
  |   22: Species O             3.61039474        5.35460590        4.66701210
  |   23: Species O             3.11335574        7.59585606        3.11134140
  |   24: Species O             1.36914458        5.85164490        3.11134140
  |   25: Species Ru            6.72375048        2.24125016        1.55567070
  |   26: Species Ru            4.48250032        0.00000000        0.00000000
  |   27: Species O             5.35460590        3.61039474        1.55567070
  |   28: Species O             8.09289506        0.87210558        1.55567070
  |   29: Species O             7.59585606        3.11335574        0.00000000
  |   30: Species O             5.85164490        1.36914458        0.00000000
  |   31: Species Ru            6.72375048        2.24125016        4.66701210
  |   32: Species Ru            4.48250032        0.00000000        3.11134140
  |   33: Species O             5.35460590        3.61039474        4.66701210
  |   34: Species O             8.09289506        0.87210558        4.66701210
  |   35: Species O             7.59585606        3.11335574        3.11134140
  |   36: Species O             5.85164490        1.36914458        3.11134140
  |   37: Species Ru            6.72375048        6.72375048        1.55567070
  |   38: Species Ru            4.48250032        4.48250032        0.00000000
  |   39: Species O             5.35460590        8.09289506        1.55567070
  |   40: Species O             8.09289506        5.35460590        1.55567070
  |   41: Species O             7.59585606        7.59585606        0.00000000
  |   42: Species O             5.85164490        5.85164490        0.00000000
  |   43: Species Ru            6.72375048        6.72375048        4.66701210
  |   44: Species Ru            4.48250032        4.48250032        3.11134140
  |   45: Species O             5.35460590        8.09289506        4.66701210
  |   46: Species O             8.09289506        5.35460590        4.66701210
  |   47: Species O             7.59585606        7.59585606        3.11134140
  |   48: Species O             5.85164490        5.85164490        3.11134140

  Lattice parameters for 3D lattice (in Angstroms) :     8.965001    8.965001    6.222683
  Angle(s) between unit vectors (in degrees)       :    90.000000   90.000000   90.000000


  Quantities derived from the lattice vectors (in Angstrom^-1):
  | Reciprocal lattice vector 1:  0.700857  0.000000  0.000000
  | Reciprocal lattice vector 2:  0.000000  0.700857  0.000000
  | Reciprocal lattice vector 3:  0.000000  0.000000  1.009723
  | Unit cell volume                               :   0.500125E+03  Angstrom^3

  Fractional coordinates:
                         L1                L2                L3
       atom_frac         0.25000000        0.25000000        0.25000000  Ru
       atom_frac         0.00000000        0.00000000        0.00000000  Ru
       atom_frac         0.09727892        0.40272108        0.25000000  O
       atom_frac         0.40272108        0.09727892        0.25000000  O
       atom_frac         0.34727892        0.34727892        0.00000000  O
       atom_frac         0.15272108        0.15272108        0.00000000  O
       atom_frac         0.25000000        0.25000000        0.75000000  Ru
       atom_frac         0.00000000        0.00000000        0.50000000  Ru
       atom_frac         0.09727892        0.40272108        0.75000000  O
       atom_frac         0.40272108        0.09727892        0.75000000  O
       atom_frac         0.34727892        0.34727892        0.50000000  O
       atom_frac         0.15272108        0.15272108        0.50000000  O
       atom_frac         0.25000000        0.75000000        0.25000000  Ru
       atom_frac         0.00000000        0.50000000        0.00000000  Ru
       atom_frac         0.09727892        0.90272108        0.25000000  O
       atom_frac         0.40272108        0.59727892        0.25000000  O
       atom_frac         0.34727892        0.84727892        0.00000000  O
       atom_frac         0.15272108        0.65272108        0.00000000  O
       atom_frac         0.25000000        0.75000000        0.75000000  Ru
       atom_frac         0.00000000        0.50000000        0.50000000  Ru
       atom_frac         0.09727892        0.90272108        0.75000000  O
       atom_frac         0.40272108        0.59727892        0.75000000  O
       atom_frac         0.34727892        0.84727892        0.50000000  O
       atom_frac         0.15272108        0.65272108        0.50000000  O
       atom_frac         0.75000000        0.25000000        0.25000000  Ru
       atom_frac         0.50000000        0.00000000        0.00000000  Ru
       atom_frac         0.59727892        0.40272108        0.25000000  O
       atom_frac         0.90272108        0.09727892        0.25000000  O
       atom_frac         0.84727892        0.34727892        0.00000000  O
       atom_frac         0.65272108        0.15272108        0.00000000  O
       atom_frac         0.75000000        0.25000000        0.75000000  Ru
       atom_frac         0.50000000        0.00000000        0.50000000  Ru
       atom_frac         0.59727892        0.40272108        0.75000000  O
       atom_frac         0.90272108        0.09727892        0.75000000  O
       atom_frac         0.84727892        0.34727892        0.50000000  O
       atom_frac         0.65272108        0.15272108        0.50000000  O
       atom_frac         0.75000000        0.75000000        0.25000000  Ru
       atom_frac         0.50000000        0.50000000        0.00000000  Ru
       atom_frac         0.59727892        0.90272108        0.25000000  O
       atom_frac         0.90272108        0.59727892        0.25000000  O
       atom_frac         0.84727892        0.84727892        0.00000000  O
       atom_frac         0.65272108        0.65272108        0.00000000  O
       atom_frac         0.75000000        0.75000000        0.75000000  Ru
       atom_frac         0.50000000        0.50000000        0.50000000  Ru
       atom_frac         0.59727892        0.90272108        0.75000000  O
       atom_frac         0.90272108        0.59727892        0.75000000  O
       atom_frac         0.84727892        0.84727892        0.50000000  O
       atom_frac         0.65272108        0.65272108        0.50000000  O

  Initial moments and charges:
  |  Atom   Moment         Charge        Species
  |     1   0.100000E+01   0.000000E+00   Ru
  |     2  -0.100000E+01   0.000000E+00   Ru
  |     3   0.000000E+00   0.000000E+00   O
  |     4   0.000000E+00   0.000000E+00   O
  |     5   0.000000E+00   0.000000E+00   O
  |     6   0.000000E+00   0.000000E+00   O
  |     7   0.100000E+01   0.000000E+00   Ru
  |     8  -0.100000E+01   0.000000E+00   Ru
  |     9   0.000000E+00   0.000000E+00   O
  |    10   0.000000E+00   0.000000E+00   O
  |    11   0.000000E+00   0.000000E+00   O
  |    12   0.000000E+00   0.000000E+00   O
  |    13   0.100000E+01   0.000000E+00   Ru
  |    14  -0.100000E+01   0.000000E+00   Ru
  |    15   0.000000E+00   0.000000E+00   O
  |    16   0.000000E+00   0.000000E+00   O
  |    17   0.000000E+00   0.000000E+00   O
  |    18   0.000000E+00   0.000000E+00   O
  |    19   0.100000E+01   0.000000E+00   Ru
  |    20  -0.100000E+01   0.000000E+00   Ru
  |    21   0.000000E+00   0.000000E+00   O
  |    22   0.000000E+00   0.000000E+00   O
  |    23   0.000000E+00   0.000000E+00   O
  |    24   0.000000E+00   0.000000E+00   O
  |    25   0.100000E+01   0.000000E+00   Ru
  |    26  -0.100000E+01   0.000000E+00   Ru
  |    27   0.000000E+00   0.000000E+00   O
  |    28   0.000000E+00   0.000000E+00   O
  |    29   0.000000E+00   0.000000E+00   O
  |    30   0.000000E+00   0.000000E+00   O
  |    31   0.100000E+01   0.000000E+00   Ru
  |    32  -0.100000E+01   0.000000E+00   Ru
  |    33   0.000000E+00   0.000000E+00   O
  |    34   0.000000E+00   0.000000E+00   O
  |    35   0.000000E+00   0.000000E+00   O
  |    36   0.000000E+00   0.000000E+00   O
  |    37   0.100000E+01   0.000000E+00   Ru
  |    38  -0.100000E+01   0.000000E+00   Ru
  |    39   0.000000E+00   0.000000E+00   O
  |    40   0.000000E+00   0.000000E+00   O
  |    41   0.000000E+00   0.000000E+00   O
  |    42   0.000000E+00   0.000000E+00   O
  |    43   0.100000E+01   0.000000E+00   Ru
  |    44  -0.100000E+01   0.000000E+00   Ru
  |    45   0.000000E+00   0.000000E+00   O
  |    46   0.000000E+00   0.000000E+00   O
  |    47   0.000000E+00   0.000000E+00   O
  |    48   0.000000E+00   0.000000E+00   O

  Slab Identifier: This seems to be a bulk system.
 
  Finished reading input file 'geometry.in'.
 

 
  Consistency checks for stacksize environment parameter are next.
 
  | Maximum stacksize for task 0: unlimited
  | Maximum stacksize for task 1: unlimited
  | Maximum stacksize for task 2: unlimited
  | Maximum stacksize for task 3: unlimited
  | Maximum stacksize for task 4: unlimited
  | Maximum stacksize for task 5: unlimited
  | Maximum stacksize for task 6: unlimited
  | Maximum stacksize for task 7: unlimited
  | Maximum stacksize for task 8: unlimited
  | Maximum stacksize for task 9: unlimited
  | Maximum stacksize for task 10: unlimited
  | Maximum stacksize for task 11: unlimited
  | Maximum stacksize for task 12: unlimited
  | Maximum stacksize for task 13: unlimited
  | Maximum stacksize for task 14: unlimited
  | Maximum stacksize for task 15: unlimited
  | Current stacksize for task 0: unlimited
  | Current stacksize for task 1: unlimited
  | Current stacksize for task 2: unlimited
  | Current stacksize for task 3: unlimited
  | Current stacksize for task 4: unlimited
  | Current stacksize for task 5: unlimited
  | Current stacksize for task 6: unlimited
  | Current stacksize for task 7: unlimited
  | Current stacksize for task 8: unlimited
  | Current stacksize for task 9: unlimited
  | Current stacksize for task 10: unlimited
  | Current stacksize for task 11: unlimited
  | Current stacksize for task 12: unlimited
  | Current stacksize for task 13: unlimited
  | Current stacksize for task 14: unlimited
  | Current stacksize for task 15: unlimited
 
  Consistency checks for the contents of control.in are next.
 
  MPI_IN_PLACE appears to work with this MPI implementation.
  | Keeping use_mpi_in_place .true. (see manual).
  Target number of points in a grid batch is not set. Defaulting to  100
  Method for grid partitioning is not set. Defaulting to parallel hash+maxmin partitioning.
  Batch size limit is not set. Defaulting to    200
  By default, will store active basis functions for each batch.
  If in need of memory, prune_basis_once .false. can be used to disable this option.
  communication_type for Hartree potential was not specified.
  Defaulting to calc_hartree .
  Pulay mixer: Number of initial linear mixing iterations not set.
  Defaulting to    0 iterations.
  Work space size for distributed Hartree potential not set.
  Defaulting to   0.200000E+03 MB.
  Mixing parameter for spin density mixing has not been set.
  Using charge_mix_param as default:     0.1000.
  Algorithm-dependent basis array size parameters:
  | n_max_pulay                         :       10
  Presetting      1001 iterations before the initial mixing cycle
  is restarted anyway using the sc_init_iter criterion / keyword.
  Presetting a factor      1.000 between actual scf density residual
  and density convergence criterion sc_accuracy_rho below which sc_init_iter
  takes no effect.
[...]
  ----------------------------------------------------------------------
  | Atom    31: Ru
  |   Hirshfeld charge        :      0.47378700
  |   Free atom volume        :    129.58774376
  |   Hirshfeld volume        :    124.45092627
  |   Hirshfeld spin moment   :      0.00046041
  |   Hirshfeld dipole vector :     -0.00000688      -0.00002399       0.00000073
  |   Hirshfeld dipole moment :      0.00002496
  |   Hirshfeld second moments:      0.18297128      -0.01362548      -0.00000318
  |                                 -0.01362548       0.18296886      -0.00000289
  |                                 -0.00000318      -0.00000289       0.12999800
  ----------------------------------------------------------------------
  | Atom    32: Ru
  |   Hirshfeld charge        :      0.47372220
  |   Free atom volume        :    129.58774376
  |   Hirshfeld volume        :    124.45048459
  |   Hirshfeld spin moment   :     -0.00048310
  |   Hirshfeld dipole vector :     -0.00000007      -0.00000054      -0.00000004
  |   Hirshfeld dipole moment :      0.00000054
  |   Hirshfeld second moments:      0.18297916       0.01361261      -0.00000017
  |                                  0.01361261       0.18297203       0.00000052
  |                                 -0.00000017       0.00000052       0.13000166
  ----------------------------------------------------------------------
  | Atom    33: O
  |   Hirshfeld charge        :     -0.23681771
  |   Free atom volume        :     23.60491416
  |   Hirshfeld volume        :     23.21627015
  |   Hirshfeld spin moment   :     -0.00003633
  |   Hirshfeld dipole vector :      0.00076732      -0.00077241       0.00000294
  |   Hirshfeld dipole moment :      0.00108876
  |   Hirshfeld second moments:     -0.00741190       0.00564001       0.00000026
  |                                  0.00564001      -0.00740996      -0.00000219
  |                                  0.00000026      -0.00000219      -0.01265088
  ----------------------------------------------------------------------
  | Atom    34: O
  |   Hirshfeld charge        :     -0.23683644
  |   Free atom volume        :     23.60491416
  |   Hirshfeld volume        :     23.21644109
  |   Hirshfeld spin moment   :     -0.00003640
  |   Hirshfeld dipole vector :     -0.00077318       0.00076778       0.00000133
  |   Hirshfeld dipole moment :      0.00108963
  |   Hirshfeld second moments:     -0.00741927       0.00563894      -0.00000178
  |                                  0.00563894      -0.00742172      -0.00000011
  |                                 -0.00000178      -0.00000011      -0.01265836
  ----------------------------------------------------------------------
  | Atom    35: O
  |   Hirshfeld charge        :     -0.23681746
  |   Free atom volume        :     23.60491416
  |   Hirshfeld volume        :     23.21633088
  |   Hirshfeld spin moment   :      0.00003831
  |   Hirshfeld dipole vector :      0.00076632       0.00076949       0.00000186
  |   Hirshfeld dipole moment :      0.00108598
  |   Hirshfeld second moments:     -0.00741437      -0.00564236       0.00000039
  |                                 -0.00564236      -0.00741455       0.00000034
  |                                  0.00000039       0.00000034      -0.01265134
  ----------------------------------------------------------------------
  | Atom    36: O
  |   Hirshfeld charge        :     -0.23682840
  |   Free atom volume        :     23.60491416
  |   Hirshfeld volume        :     23.21625400
  |   Hirshfeld spin moment   :      0.00003853
  |   Hirshfeld dipole vector :     -0.00076992      -0.00076717       0.00000185
  |   Hirshfeld dipole moment :      0.00108689
  |   Hirshfeld second moments:     -0.00741437      -0.00564271      -0.00000039
  |                                 -0.00564271      -0.00741421      -0.00000033
  |                                 -0.00000039      -0.00000033      -0.01264781
  ----------------------------------------------------------------------
  | Atom    37: Ru
  |   Hirshfeld charge        :      0.47377771
  |   Free atom volume        :    129.58774376
  |   Hirshfeld volume        :    124.45077638
  |   Hirshfeld spin moment   :      0.00041818
  |   Hirshfeld dipole vector :     -0.00002305       0.00001643       0.00000143
  |   Hirshfeld dipole moment :      0.00002834
  |   Hirshfeld second moments:      0.18297449      -0.01362752       0.00000179
  |                                 -0.01362752       0.18297141      -0.00000108
  |                                  0.00000179      -0.00000108       0.13000222
  ----------------------------------------------------------------------
  | Atom    38: Ru
  |   Hirshfeld charge        :      0.47379559
  |   Free atom volume        :    129.58774376
  |   Hirshfeld volume        :    124.45099288
  |   Hirshfeld spin moment   :     -0.00043519
  |   Hirshfeld dipole vector :     -0.00000141      -0.00000147      -0.00000147
  |   Hirshfeld dipole moment :      0.00000251
  |   Hirshfeld second moments:      0.18295031       0.01361106      -0.00000056
  |                                  0.01361106       0.18297921       0.00000075
  |                                 -0.00000056       0.00000075       0.13000788
  ----------------------------------------------------------------------
  | Atom    39: O
  |   Hirshfeld charge        :     -0.23682223
  |   Free atom volume        :     23.60491416
  |   Hirshfeld volume        :     23.21627068
  |   Hirshfeld spin moment   :     -0.00003388
  |   Hirshfeld dipole vector :      0.00077654      -0.00077719       0.00000563
  |   Hirshfeld dipole moment :      0.00109867
  |   Hirshfeld second moments:     -0.00741125       0.00564234      -0.00000462
  |                                  0.00564234      -0.00741207       0.00000465
  |                                 -0.00000462       0.00000465      -0.01265233
  ----------------------------------------------------------------------
  | Atom    40: O
  |   Hirshfeld charge        :     -0.23681648
  |   Free atom volume        :     23.60491416
  |   Hirshfeld volume        :     23.21639716
  |   Hirshfeld spin moment   :     -0.00003426
  |   Hirshfeld dipole vector :     -0.00076702       0.00076759      -0.00000177
  |   Hirshfeld dipole moment :      0.00108514
  |   Hirshfeld second moments:     -0.00741489       0.00564296       0.00000046
  |                                  0.00564296      -0.00741522      -0.00000032
  |                                  0.00000046      -0.00000032      -0.01265753
  ----------------------------------------------------------------------
  | Atom    41: O
  |   Hirshfeld charge        :     -0.23681685
  |   Free atom volume        :     23.60491416
  |   Hirshfeld volume        :     23.21637779
  |   Hirshfeld spin moment   :      0.00003405
  |   Hirshfeld dipole vector :      0.00076309       0.00077515       0.00000127
  |   Hirshfeld dipole moment :      0.00108774
  |   Hirshfeld second moments:     -0.00741472      -0.00563839       0.00000032
  |                                 -0.00563839      -0.00741698       0.00000021
  |                                  0.00000032       0.00000021      -0.01265409
  ----------------------------------------------------------------------
  | Atom    42: O
  |   Hirshfeld charge        :     -0.23682438
  |   Free atom volume        :     23.60491416
  |   Hirshfeld volume        :     23.21636198
  |   Hirshfeld spin moment   :      0.00003397
  |   Hirshfeld dipole vector :     -0.00077536      -0.00076351       0.00000124
  |   Hirshfeld dipole moment :      0.00108818
  |   Hirshfeld second moments:     -0.00741679      -0.00563822      -0.00000031
  |                                 -0.00563822      -0.00741456      -0.00000020
  |                                 -0.00000031      -0.00000020      -0.01265473
  ----------------------------------------------------------------------
  | Atom    43: Ru
  |   Hirshfeld charge        :      0.47373995
  |   Free atom volume        :    129.58774376
  |   Hirshfeld volume        :    124.45087570
  |   Hirshfeld spin moment   :      0.00041842
  |   Hirshfeld dipole vector :     -0.00002319       0.00001626      -0.00000138
  |   Hirshfeld dipole moment :      0.00002836
  |   Hirshfeld second moments:      0.18296289      -0.01362725      -0.00000180
  |                                 -0.01362725       0.18296509       0.00000107
  |                                 -0.00000180       0.00000107       0.12999936
  ----------------------------------------------------------------------
  | Atom    44: Ru
  |   Hirshfeld charge        :      0.47368809
  |   Free atom volume        :    129.58774376
  |   Hirshfeld volume        :    124.45123001
  |   Hirshfeld spin moment   :     -0.00045830
  |   Hirshfeld dipole vector :     -0.00000118      -0.00000170       0.00000141
  |   Hirshfeld dipole moment :      0.00000251
  |   Hirshfeld second moments:      0.18293514       0.01363414       0.00000057
  |                                  0.01363414       0.18294257      -0.00000074
  |                                  0.00000057      -0.00000074       0.12999688
  ----------------------------------------------------------------------
  | Atom    45: O
  |   Hirshfeld charge        :     -0.23682090
  |   Free atom volume        :     23.60491416
  |   Hirshfeld volume        :     23.21628522
  |   Hirshfeld spin moment   :     -0.00003391
  |   Hirshfeld dipole vector :      0.00077548      -0.00077475      -0.00000563
  |   Hirshfeld dipole moment :      0.00109619
  |   Hirshfeld second moments:     -0.00741240       0.00564316       0.00000462
  |                                  0.00564316      -0.00741206      -0.00000465
  |                                  0.00000462      -0.00000465      -0.01265266
  ----------------------------------------------------------------------
  | Atom    46: O
  |   Hirshfeld charge        :     -0.23681512
  |   Free atom volume        :     23.60491416
  |   Hirshfeld volume        :     23.21641157
  |   Hirshfeld spin moment   :     -0.00003430
  |   Hirshfeld dipole vector :     -0.00076598       0.00076513       0.00000178
  |   Hirshfeld dipole moment :      0.00108266
  |   Hirshfeld second moments:     -0.00741601       0.00564378      -0.00000046
  |                                  0.00564378      -0.00741523       0.00000032
  |                                 -0.00000046       0.00000032      -0.01265785
  ----------------------------------------------------------------------
  | Atom    47: O
  |   Hirshfeld charge        :     -0.23681688
  |   Free atom volume        :     23.60491416
  |   Hirshfeld volume        :     23.21627664
  |   Hirshfeld spin moment   :      0.00003298
  |   Hirshfeld dipole vector :      0.00076938       0.00077130      -0.00000126
  |   Hirshfeld dipole moment :      0.00108943
  |   Hirshfeld second moments:     -0.00741206      -0.00564241      -0.00000032
  |                                 -0.00564241      -0.00741433      -0.00000021
  |                                 -0.00000032      -0.00000021      -0.01264890
  ----------------------------------------------------------------------
  | Atom    48: O
  |   Hirshfeld charge        :     -0.23682083
  |   Free atom volume        :     23.60491416
  |   Hirshfeld volume        :     23.21627627
  |   Hirshfeld spin moment   :      0.00003301
  |   Hirshfeld dipole vector :     -0.00076945      -0.00076759      -0.00000124
  |   Hirshfeld dipole moment :      0.00108685
  |   Hirshfeld second moments:     -0.00741458      -0.00564345       0.00000031
  |                                 -0.00564345      -0.00741239       0.00000020
  |                                  0.00000031       0.00000020      -0.01264969
  ----------------------------------------------------------------------


------------------------------------------------------------------------------
  Final output of selected total energy values:

  The following output summarizes some interesting total energy values
  at the end of a run (AFTER all relaxation, molecular dynamics, etc.).

  | Total energy of the DFT / Hartree-Fock s.c.f. calculation      :       -2059011.627653809 eV
  | Final zero-broadening corrected energy (caution - metals only) :       -2059011.634567685 eV
  | For reference only, the value of 1 Hartree used in FHI-aims is :             27.211384500 eV
  | For reference only, the overall average (free atom contribution
  | + realspace contribution) of the electrostatic potential after
  | s.c.f. convergence is                                          :            -19.353056446 eV

  Before relying on these values, please be sure to understand exactly which
  total energy value is referred to by a given number. Different objects may
  all carry the same name 'total energy'. Definitions:

  Total energy of the DFT / Hartree-Fock s.c.f. calculation:
  | Note that this energy does not include ANY quantities calculated after the
  | s.c.f. cycle, in particular not ANY RPA, MP2, etc. many-body perturbation terms.

  Final zero-broadening corrected energy:
  | For metallic systems only, a broadening of the occupation numbers at the Fermi
  | level can be extrapolated back to zero broadening by an electron-gas inspired
  | formula. For all systems that are not real metals, this value can be
  | meaningless and should be avoided.

------------------------------------------------------------------------------
  Methods described in the following list of references were used in this FHI-aims run.
  If you publish the results, please make sure to cite these reference if they apply.
  FHI-aims is an academic code, and for our developers (often, Ph.D. students
  and postdocs), scientific credit in the community is essential.
  Thank you for helping us!

  For any use of FHI-aims, please cite:

    Volker Blum, Ralf Gehrke, Felix Hanke, Paula Havu, Ville Havu,
    Xinguo Ren, Karsten Reuter, and Matthias Scheffler
    'Ab initio molecular simulations with numeric atom-centered orbitals'
    Computer Physics Communications 180, 2175-2196 (2009)
    http://doi.org/10.1016/j.cpc.2009.06.022


  For the analytical stress tensor used in your run, please cite:

    Franz Knuth, Christian Carbogno, Viktor Atalla, Volker Blum, Matthias Scheffler
    'All-electron formalism for total energy strain derivatives and
    stress tensor components for numeric atom-centered orbitals'
    Computer Physics Communications 190, 33-50 (2015).
    http://doi.org/10.1016/j.cpc.2015.01.003


  The provided symmetry information was generated with SPGlib:

    Atsushi Togo, Yusuke Seto, Dimitar Pashov
    SPGlib 1.7.3 obtained from http://spglib.sourceforge.net
    Licence: New BSD license
    Copyright (C) 2008 Atsushi Togo


  The ELSI infrastructure was used in your run to solve the Kohn-Sham electronic structure.
  Please check out http://elsi-interchange.org to learn more.
  If scalability is important for your project, please acknowledge ELSI by citing:

    V. W-z. Yu, F. Corsetti, A. Garcia, W. P. Huhn, M. Jacquelin, W. Jia,
    B. Lange, L. Lin, J. Lu, W. Mi, A. Seifitokaldani, A. Vazquez-Mayagoitia,
    C. Yang, H. Yang, and V. Blum
    'ELSI: A unified software interface for Kohn-Sham electronic structure solvers'
    Computer Physics Communications 222, 267-285 (2018).
    http://doi.org/10.1016/j.cpc.2017.09.007


  For the real-space grid partitioning and parallelization used in this calculation, please cite:

    Ville Havu, Volker Blum, Paula Havu, and Matthias Scheffler,
    'Efficient O(N) integration for all-electron electronic structure calculation'
    'using numerically tabulated basis functions'
    Journal of Computational Physics 228, 8367-8379 (2009).
    http://doi.org/10.1016/j.jcp.2009.08.008


  The high-level electronic structure method used in your calculation
  employed our efficient localized resolution of identity for the Coulomb operator.
  Some calculations, especially large-scale hybrid density functional theory,
  are only possible thanks to this development. For this feature, please cite:

    Arvid Ihrig, Juergen Wieferink, Igor Ying Zhang, Matti Ropo, Xinguo Ren,
    Patrick Rinke, Matthias Scheffler, and Volker Blum,
    'Accurate localized resolution of identity approach for linear-scaling
    hybrid density functionals and for many-body perturbation theory'
    New Journal of Physics 117, 093020 (2015).
    http://doi.org/10.1088/1367-2630/17/9/093020

  Of course, there are many other important community references, e.g., those cited in the
  above references. Our list is limited to references that describe implementations in the
  FHI-aims code. The reason is purely practical (length of this list) - please credit others as well.

 * A warning was issued further up regarding the accuracy of onsite integrals.
   An integral with a negative eigenvalue was among the flagged integrals.
   In most standard situations, this warning is probably harmless.
   If needed, this can be verified by adjusting the radial_multiplier flag.

------------------------------------------------------------
          Leaving FHI-aims.
          Date     :  20260219, Time     :  161341.032

          Computational steps:
          | Number of self-consistency cycles          :           91
          | Number of SCF (re)initializations          :            4
          | Number of relaxation steps                 :            3

          Detailed time accounting                     :  max(cpu_time)    wall_clock(cpu1)
          | Total time                                  :     2600.281 s        2612.768 s
          | Preparation time                            :        2.111 s           2.124 s
          | Boundary condition initalization            :        0.243 s           0.249 s
          | Grid partitioning                           :        0.685 s           0.690 s
          | Preloading free-atom quantities on grid     :        4.872 s           4.897 s
          | Free-atom superposition energy              :        0.547 s           0.549 s
          | Total time for integrations                 :      340.228 s         341.966 s
          | Total time for solution of K.-S. equations  :      605.118 s         607.762 s
          | Total time for EV reorthonormalization      :        5.967 s           4.063 s
          | Total time for density & force components   :     1559.606 s        1566.682 s
          | Total time for mixing                       :        0.730 s           0.727 s
          | Total time for Hartree multipole update     :        0.785 s           0.884 s
          | Total time for Hartree multipole sum        :       50.214 s          50.437 s
          | Total time for total energy evaluation      :        0.098 s           0.096 s
          | Total time NSC force correction             :       18.343 s          18.433 s
          | Total time for scaled ZORA corrections      :        0.000 s           0.000 s

          Partial memory accounting:
          | Residual value for overall tracked memory usage across tasks:     0.000000 MB (should be 0.000000 MB)
          | Peak values for overall tracked memory usage:
          |   Minimum:      249.646 MB (on task  6 after allocating eval_tmp)
          |   Maximum:      293.853 MB (on task  2 after allocating eval_tmp)
          |   Average:      260.742 MB
          | Largest tracked array allocation:
          |   Minimum:       44.094 MB (KS_eigenvector_complex on task  0)
          |   Maximum:       66.141 MB (KS_eigenvector_complex on task  1)
          |   Average:       49.605 MB
          Note:  These values currently only include a subset of arrays which are explicitly tracked.
          The "true" memory usage will be greater.

          Have a nice day.
------------------------------------------------------------
